fcc Si                                  
   3.90000000000000     
     0.500000    0.500000    0.000000
     0.000000    0.500000    0.500000
     0.500000    0.000000    0.500000
   Si
     1
Direct
  0.000000  0.000000  0.000000
 
   20   20   20
 -2.5621     -1.7637     0.29384      2.7775      4.7888      5.7895      5.7871      5.2154      4.6008      4.1814    
  4.0340      4.1814      4.6008      5.2154      5.7871      5.7895      4.7888      2.7775     0.29384     -1.7637    
 -1.7637     -.33850      1.9094      4.0963      5.5021      5.8818      5.4888      4.8409      4.3149      4.0291    
  4.0292      4.3151      4.8409      5.4886      5.8817      5.5024      4.0966      1.9092     -.33922     -1.7641    
 0.29384      1.9094      3.8119      5.2659      5.8569      5.6386      5.0147      4.4178      4.0173      3.8775    
  4.0173      4.4178      5.0147      5.6387      5.8568      5.2659      3.8120      1.9096     0.29407     -.33922    
  2.7775      4.0963      5.2659      5.8309      5.6956      5.1163      4.4850      4.0034      3.7470      3.7468    
  4.0032      4.4850      5.1165      5.6956      5.8307      5.2658      4.0968      2.7784      1.9096      1.9092    
  4.7888      5.5021      5.8569      5.6956      5.1492      4.5176      3.9925      3.6529      3.5363      3.6529    
  3.9925      4.5176      5.1492      5.6956      5.8569      5.5022      4.7891      4.0968      3.8120      4.0966    
  5.7895      5.8818      5.6386      5.1163      4.5176      3.9885      3.6042      3.4049      3.4049      3.6043    
  3.9885      4.5176      5.1165      5.6387      5.8818      5.7894      5.5022      5.2658      5.2659      5.5024    
  5.7871      5.4888      5.0147      4.4850      3.9925      3.6042      3.3605      3.2781      3.3606      3.6042    
  3.9925      4.4850      5.0147      5.4888      5.7872      5.8818      5.8569      5.8307      5.8568      5.8817    
  5.2154      4.8409      4.4178      4.0034      3.6529      3.4049      3.2781      3.2781      3.4049      3.6528    
  4.0033      4.4177      4.8409      5.2156      5.4888      5.6387      5.6956      5.6956      5.6387      5.4886    
  4.6008      4.3149      4.0173      3.7470      3.5363      3.4049      3.3606      3.4049      3.5363      3.7469    
  4.0173      4.3149      4.6009      4.8409      5.0147      5.1165      5.1492      5.1165      5.0147      4.8409    
  4.1814      4.0291      3.8775      3.7468      3.6529      3.6043      3.6042      3.6528      3.7469      3.8777    
  4.0293      4.1813      4.3149      4.4177      4.4850      4.5176      4.5176      4.4850      4.4178      4.3151    
  4.0340      4.0292      4.0173      4.0032      3.9925      3.9885      3.9925      4.0033      4.0173      4.0293    
  4.0340      4.0293      4.0173      4.0033      3.9925      3.9885      3.9925      4.0032      4.0173      4.0292    
  4.1814      4.3151      4.4178      4.4850      4.5176      4.5176      4.4850      4.4177      4.3149      4.1813    
  4.0293      3.8777      3.7469      3.6528      3.6042      3.6043      3.6529      3.7468      3.8775      4.0291    
  4.6008      4.8409      5.0147      5.1165      5.1492      5.1165      5.0147      4.8409      4.6009      4.3149    
  4.0173      3.7469      3.5363      3.4049      3.3606      3.4049      3.5363      3.7470      4.0173      4.3149    
  5.2154      5.4886      5.6387      5.6956      5.6956      5.6387      5.4888      5.2156      4.8409      4.4177    
  4.0033      3.6528      3.4049      3.2781      3.2781      3.4049      3.6529      4.0034      4.4178      4.8409    
  5.7871      5.8817      5.8568      5.8307      5.8569      5.8818      5.7872      5.4888      5.0147      4.4850    
  3.9925      3.6042      3.3606      3.2781      3.3605      3.6042      3.9925      4.4850      5.0147      5.4888    
  5.7895      5.5024      5.2659      5.2658      5.5022      5.7894      5.8818      5.6387      5.1165      4.5176    
  3.9885      3.6043      3.4049      3.4049      3.6042      3.9885      4.5176      5.1163      5.6386      5.8818    
  4.7888      4.0966      3.8120      4.0968      4.7891      5.5022      5.8569      5.6956      5.1492      4.5176    
  3.9925      3.6529      3.5363      3.6529      3.9925      4.5176      5.1492      5.6956      5.8569      5.5021    
  2.7775      1.9092      1.9096      2.7784      4.0968      5.2658      5.8307      5.6956      5.1165      4.4850    
  4.0032      3.7468      3.7470      4.0034      4.4850      5.1163      5.6956      5.8309      5.2659      4.0963    
 0.29384     -.33922     0.29407      1.9096      3.8120      5.2659      5.8568      5.6387      5.0147      4.4178    
  4.0173      3.8775      4.0173      4.4178      5.0147      5.6386      5.8569      5.2659      3.8119      1.9094    
 -1.7637     -1.7641     -.33922      1.9092      4.0966      5.5024      5.8817      5.4886      4.8409      4.3151    
  4.0292      4.0291      4.3149      4.8409      5.4888      5.8818      5.5021      4.0963      1.9094     -.33850    
 -1.7640     -.33839      1.9098      4.0966      5.5021      5.8817      5.4888      4.8410      4.3149      4.0290    
  4.0293      4.3152      4.8409      5.4885      5.8817      5.5025      4.0967      1.9090     -.33967     -1.7646    
 -.33839      1.4210      3.5101      5.1406      5.8589      5.7058      5.0953      4.4917      4.0844      3.9418    
  4.0844      4.4916      5.0952      5.7059      5.8593      5.1408      3.5096      1.4196     -.33965     -1.0262    
  1.9098      3.5101      4.9828      5.7919      5.7993      5.2641      4.6219      4.1248      3.8583      3.8582    
  4.1246      4.6218      5.2642      5.7995      5.7920      4.9826      3.5096      1.9092     0.87046     0.87069    
  4.0966      5.1406      5.7919      5.8218      5.3446      4.7003      4.1500      3.7904      3.6665      3.7905    
  4.1500      4.7001      5.3445      5.8218      5.7919      5.1406      4.0967      3.1433      2.7592      3.1432    
  5.5021      5.8589      5.7993      5.3446      4.7263      4.1622      3.7470      3.5302      3.5303      3.7472    
  4.1622      4.7262      5.3445      5.7994      5.8591      5.5022      4.9520      4.5516      4.5516      4.9521    
  5.8817      5.7058      5.2641      4.7003      4.1622      3.7323      3.4604      3.3681      3.4605      3.7323    
  4.1622      4.7003      5.2642      5.7059      5.8816      5.8035      5.6283      5.5426      5.6284      5.8037    
  5.4888      5.0953      4.6219      4.1500      3.7470      3.4604      3.3136      3.3136      3.4604      3.7470    
  4.1500      4.6219      5.0952      5.4887      5.7219      5.8018      5.8064      5.8063      5.8017      5.7218    
  4.8410      4.4917      4.1248      3.7904      3.5302      3.3681      3.3136      3.3682      3.5302      3.7904    
  4.1246      4.4914      4.8409      5.1293      5.3273      5.4301      5.4597      5.4298      5.3270      5.1291    
  4.3149      4.0844      3.8583      3.6665      3.5303      3.4605      3.4604      3.5302      3.6665      3.8583    
  4.0844      4.3149      4.5203      4.6794      4.7836      4.8340      4.8339      4.7835      4.6793      4.5203    
  4.0290      3.9418      3.8582      3.7905      3.7472      3.7323      3.7470      3.7904      3.8583      3.9421    
  4.0292      4.1073      4.1677      4.2081      4.2302      4.2371      4.2303      4.2083      4.1679      4.1073    
  4.0293      4.0844      4.1246      4.1500      4.1622      4.1622      4.1500      4.1246      4.0844      4.0292    
  3.9626      3.8919      3.8277      3.7796      3.7541      3.7541      3.7796      3.8277      3.8919      3.9625    
  4.3152      4.4916      4.6218      4.7001      4.7262      4.7003      4.6219      4.4914      4.3149      4.1073    
  3.8919      3.6959      3.5423      3.4461      3.4135      3.4461      3.5423      3.6957      3.8918      4.1074    
  4.8409      5.0952      5.2642      5.3445      5.3445      5.2642      5.0952      4.8409      4.5203      4.1677    
  3.8277      3.5423      3.3410      3.2382      3.2382      3.3411      3.5424      3.8277      4.1677      4.5203    
  5.4885      5.7059      5.7995      5.8218      5.7994      5.7059      5.4887      5.1293      4.6794      4.2081    
  3.7796      3.4461      3.2382      3.1681      3.2382      3.4461      3.7797      4.2083      4.6793      5.1290    
  5.8817      5.8593      5.7920      5.7919      5.8591      5.8816      5.7219      5.3273      4.7836      4.2302    
  3.7541      3.4135      3.2382      3.2382      3.4134      3.7540      4.2303      4.7836      5.3272      5.7218    
  5.5025      5.1408      4.9826      5.1406      5.5022      5.8035      5.8018      5.4301      4.8340      4.2371    
  3.7541      3.4461      3.3411      3.4461      3.7540      4.2371      4.8338      5.4299      5.8018      5.8038    
  4.0967      3.5096      3.5096      4.0967      4.9520      5.6283      5.8064      5.4597      4.8339      4.2303    
  3.7796      3.5423      3.5424      3.7797      4.2303      4.8338      5.4596      5.8063      5.6283      4.9521    
  1.9090      1.4196      1.9092      3.1433      4.5516      5.5426      5.8063      5.4298      4.7835      4.2083    
  3.8277      3.6957      3.8277      4.2083      4.7836      5.4299      5.8063      5.5425      4.5513      3.1430    
 -.33967     -.33965     0.87046      2.7592      4.5516      5.6284      5.8017      5.3270      4.6793      4.1679    
  3.8919      3.8918      4.1677      4.6793      5.3272      5.8018      5.6283      4.5513      2.7590     0.87035    
 -1.7646     -1.0262     0.87069      3.1432      4.9521      5.8037      5.7218      5.1291      4.5203      4.1073    
  3.9625      4.1074      4.5203      5.1290      5.7218      5.8038      4.9521      3.1430     0.87035     -1.0264    
 0.29344      1.9092      3.8120      5.2662      5.8570      5.6386      5.0147      4.4179      4.0173      3.8775    
  4.0173      4.4179      5.0147      5.6386      5.8569      5.2660      3.8121      1.9096     0.29380     -.33963    
  1.9092      3.5099      4.9829      5.7921      5.7994      5.2640      4.6219      4.1248      3.8584      3.8582    
  4.1246      4.6219      5.2642      5.7995      5.7920      4.9827      3.5098      1.9093     0.87026     0.87020    
  3.8120      4.9829      5.7493      5.8556      5.4096      4.7636      4.2052      3.8388      3.7122      3.8388    
  4.2051      4.7635      5.4096      5.8556      5.7492      4.9829      3.8120      2.7588      2.3368      2.7588    
  5.2662      5.7921      5.8556      5.4560      4.8355      4.2545      3.8236      3.5975      3.5976      3.8237    
  4.2545      4.8354      5.4559      5.8555      5.7920      5.2662      4.5515      4.0489      4.0488      4.5513    
  5.8570      5.7994      5.4096      4.8355      4.2711      3.8156      3.5258      3.4271      3.5259      3.8156    
  4.2711      4.8355      5.4096      5.7993      5.8569      5.6282      5.3267      5.1918      5.3268      5.6284    
  5.6386      5.2640      4.7636      4.2545      3.8156      3.5017      3.3403      3.3402      3.5016      3.8156    
  4.2545      4.7637      5.2642      5.6386      5.8016      5.7939      5.7388      5.7390      5.7943      5.8019    
  5.0147      4.6219      4.2052      3.8236      3.5258      3.3403      3.2777      3.3403      3.5258      3.8236    
  4.2051      4.6219      5.0147      5.3272      5.5155      5.5949      5.6132      5.5950      5.5156      5.3272    
  4.4179      4.1248      3.8388      3.5975      3.4271      3.3402      3.3403      3.4272      3.5976      3.8387    
  4.1246      4.4177      4.6793      4.8814      5.0127      5.0743      5.0742      5.0125      4.8813      4.6793    
  4.0173      3.8584      3.7122      3.5976      3.5259      3.5016      3.5258      3.5976      3.7122      3.8583    
  4.0173      4.1677      4.2918      4.3802      4.4313      4.4479      4.4313      4.3802      4.2918      4.1677    
  3.8775      3.8582      3.8388      3.8237      3.8156      3.8156      3.8236      3.8387      3.8583      3.8777    
  3.8919      3.8984      3.8980      3.8944      3.8913      3.8913      3.8945      3.8982      3.8984      3.8918    
  4.0173      4.1246      4.2051      4.2545      4.2711      4.2545      4.2051      4.1246      4.0173      3.8919    
  3.7614      3.6415      3.5463      3.4860      3.4654      3.4860      3.5463      3.6415      3.7615      3.8919    
  4.4179      4.6219      4.7635      4.8354      4.8355      4.7637      4.6219      4.4177      4.1677      3.8984    
  3.6415      3.4268      3.2753      3.1978      3.1978      3.2753      3.4267      3.6414      3.8984      4.1679    
  5.0147      5.2642      5.4096      5.4559      5.4096      5.2642      5.0147      4.6793      4.2918      3.8980    
  3.5463      3.2753      3.1072      3.0506      3.1072      3.2753      3.5463      3.8980      4.2918      4.6793    
  5.6386      5.7995      5.8556      5.8555      5.7993      5.6386      5.3272      4.8814      4.3802      3.8944    
  3.4860      3.1978      3.0506      3.0505      3.1978      3.4860      3.8945      4.3802      4.8813      5.3270    
  5.8569      5.7920      5.7492      5.7920      5.8569      5.8016      5.5155      5.0127      4.4313      3.8913    
  3.4654      3.1978      3.1072      3.1978      3.4653      3.8913      4.4313      5.0128      5.5156      5.8017    
  5.2660      4.9827      4.9829      5.2662      5.6282      5.7939      5.5949      5.0743      4.4479      3.8913    
  3.4860      3.2753      3.2753      3.4860      3.8913      4.4477      5.0742      5.5951      5.7943      5.6284    
  3.8121      3.5098      3.8120      4.5515      5.3267      5.7388      5.6132      5.0742      4.4313      3.8945    
  3.5463      3.4267      3.5463      3.8945      4.4313      5.0742      5.6132      5.7388      5.3268      4.5516    
  1.9096      1.9093      2.7588      4.0489      5.1918      5.7390      5.5950      5.0125      4.3802      3.8982    
  3.6415      3.6414      3.8980      4.3802      5.0128      5.5951      5.7388      5.1915      4.0490      2.7592    
 0.29380     0.87026      2.3368      4.0488      5.3268      5.7943      5.5156      4.8813      4.2918      3.8984    
  3.7615      3.8984      4.2918      4.8813      5.5156      5.7943      5.3268      4.0490      2.3372     0.87060    
 -.33963     0.87020      2.7588      4.5513      5.6284      5.8019      5.3272      4.6793      4.1677      3.8918    
  3.8919      4.1679      4.6793      5.3270      5.8017      5.6284      4.5516      2.7592     0.87060     -.33948    
  2.7776      4.0962      5.2657      5.8308      5.6956      5.1164      4.4850      4.0034      3.7470      3.7469    
  4.0032      4.4850      5.1165      5.6956      5.8307      5.2658      4.0967      2.7784      1.9097      1.9094    
  4.0962      5.1402      5.7918      5.8218      5.3447      4.7003      4.1500      3.7905      3.6665      3.7905    
  4.1500      4.7002      5.3445      5.8217      5.7919      5.1407      4.0968      3.1435      2.7592      3.1430    
  5.2657      5.7918      5.8556      5.4561      4.8356      4.2545      3.8236      3.5976      3.5976      3.8237    
  4.2545      4.8355      5.4559      5.8555      5.7920      5.2663      4.5517      4.0492      4.0489      4.5511    
  5.8308      5.8218      5.4561      4.8815      4.3085      3.8444      3.5486      3.4478      3.5486      3.8445    
  4.3086      4.8815      5.4559      5.8215      5.8309      5.5429      5.1920      5.0376      5.1914      5.5423    
  5.6956      5.3447      4.8356      4.3085      3.8515      3.5236      3.3547      3.3546      3.5236      3.8516    
  4.3087      4.8356      5.3445      5.6954      5.8063      5.7390      5.6442      5.6440      5.7387      5.8062    
  5.1164      4.7003      4.2545      3.8444      3.5236      3.3233      3.2557      3.3232      3.5236      3.8444    
  4.2546      4.7003      5.1165      5.4299      5.5949      5.6461      5.6521      5.6462      5.5950      5.4299    
  4.4850      4.1500      3.8236      3.5486      3.3547      3.2557      3.2557      3.3546      3.5486      3.8236    
  4.1501      4.4850      4.7836      5.0127      5.1552      5.2178      5.2178      5.1553      5.0127      4.7836    
  4.0034      3.7905      3.5976      3.4478      3.3546      3.3232      3.3546      3.4478      3.5976      3.7904    
  4.0033      4.2081      4.3802      4.5047      4.5776      4.6014      4.5776      4.5046      4.3802      4.2083    
  3.7470      3.6665      3.5976      3.5486      3.5236      3.5236      3.5486      3.5976      3.6665      3.7469    
  3.8277      3.8980      3.9511      3.9851      4.0012      4.0012      3.9851      3.9511      3.8980      3.8277    
  3.7469      3.7905      3.8237      3.8445      3.8516      3.8444      3.8236      3.7904      3.7469      3.6958    
  3.6415      3.5898      3.5473      3.5196      3.5101      3.5197      3.5474      3.5898      3.6413      3.6957    
  4.0032      4.1500      4.2545      4.3086      4.3087      4.2546      4.1501      4.0033      3.8277      3.6415    
  3.4652      3.3181      3.2139      3.1604      3.1604      3.2139      3.3181      3.4653      3.6415      3.8277    
  4.4850      4.7002      4.8355      4.8815      4.8356      4.7003      4.4850      4.2081      3.8980      3.5898    
  3.3181      3.1099      2.9810      2.9375      2.9809      3.1098      3.3180      3.5899      3.8982      4.2082    
  5.1165      5.3445      5.4559      5.4559      5.3445      5.1165      4.7836      4.3802      3.9511      3.5473    
  3.2139      2.9810      2.8624      2.8624      2.9810      3.2140      3.5473      3.9511      4.3801      4.7835    
  5.6956      5.8217      5.8555      5.8215      5.6954      5.4299      5.0127      4.5047      3.9851      3.5196    
  3.1604      2.9375      2.8624      2.9375      3.1605      3.5197      3.9850      4.5045      5.0125      5.4298    
  5.8307      5.7919      5.7920      5.8309      5.8063      5.5949      5.1552      4.5776      4.0012      3.5101    
  3.1604      2.9809      2.9810      3.1605      3.5100      4.0011      4.5777      5.1553      5.5949      5.8062    
  5.2658      5.1407      5.2663      5.5429      5.7390      5.6461      5.2178      4.6014      4.0012      3.5197    
  3.2139      3.1098      3.2140      3.5197      4.0011      4.6014      5.2180      5.6464      5.7390      5.5425    
  4.0967      4.0968      4.5517      5.1920      5.6442      5.6521      5.2178      4.5776      3.9851      3.5474    
  3.3181      3.3180      3.5473      3.9850      4.5777      5.2180      5.6522      5.6441      5.1918      4.5514    
  2.7784      3.1435      4.0492      5.0376      5.6440      5.6462      5.1553      4.5046      3.9511      3.5898    
  3.4653      3.5899      3.9511      4.5045      5.1553      5.6464      5.6441      5.0375      4.0490      3.1433    
  1.9097      2.7592      4.0489      5.1914      5.7387      5.5950      5.0127      4.3802      3.8980      3.6413    
  3.6415      3.8982      4.3801      5.0125      5.5949      5.7390      5.1918      4.0490      2.7589      1.9095    
  1.9094      3.1430      4.5511      5.5423      5.8062      5.4299      4.7836      4.2083      3.8277      3.6957    
  3.8277      4.2082      4.7835      5.4298      5.8062      5.5425      4.5514      3.1433      1.9095      1.4201    
  4.7893      5.5024      5.8569      5.6955      5.1491      4.5176      3.9925      3.6529      3.5363      3.6529    
  3.9925      4.5176      5.1492      5.6956      5.8569      5.5022      4.7889      4.0966      3.8120      4.0970    
  5.5024      5.8590      5.7992      5.3445      4.7263      4.1622      3.7470      3.5301      3.5302      3.7472    
  4.1622      4.7261      5.3445      5.7994      5.8591      5.5022      4.9520      4.5515      4.5517      4.9524    
  5.8569      5.7992      5.4095      4.8355      4.2711      3.8156      3.5258      3.4271      3.5259      3.8156    
  4.2711      4.8355      5.4096      5.7993      5.8568      5.6282      5.3268      5.1920      5.3271      5.6285    
  5.6955      5.3445      4.8355      4.3085      3.8515      3.5236      3.3546      3.3546      3.5236      3.8516    
  4.3086      4.8356      5.3445      5.6954      5.8062      5.7389      5.6442      5.6443      5.7390      5.8064    
  5.1491      4.7263      4.2711      3.8515      3.5228      3.3176      3.2483      3.3176      3.5229      3.8515    
  4.2712      4.7263      5.1492      5.4595      5.6131      5.6522      5.6530      5.6523      5.6132      5.4595    
  4.5176      4.1622      3.8156      3.5236      3.3176      3.2125      3.2125      3.3176      3.5235      3.8155    
  4.1622      4.5177      4.8339      5.0742      5.2179      5.2782      5.2783      5.2180      5.0741      4.8337    
  3.9925      3.7470      3.5258      3.3546      3.2483      3.2125      3.2483      3.3546      3.5258      3.7471    
  3.9925      4.2303      4.4313      4.5777      4.6639      4.6920      4.6639      4.5777      4.4313      4.2302    
  3.6529      3.5301      3.4271      3.3546      3.3176      3.3176      3.3546      3.4272      3.5302      3.6529    
  3.7796      3.8944      3.9851      4.0458      4.0757      4.0756      4.0457      3.9851      3.8945      3.7797    
  3.5363      3.5302      3.5259      3.5236      3.5229      3.5235      3.5258      3.5302      3.5363      3.5423    
  3.5463      3.5474      3.5461      3.5441      3.5432      3.5441      3.5460      3.5473      3.5463      3.5423    
  3.6529      3.7472      3.8156      3.8516      3.8515      3.8155      3.7471      3.6529      3.5423      3.4267    
  3.3181      3.2273      3.1627      3.1293      3.1294      3.1628      3.2273      3.3180      3.4266      3.5422    
  3.9925      4.1622      4.2711      4.3086      4.2712      4.1622      3.9925      3.7796      3.5463      3.3181    
  3.1186      2.9660      2.8713      2.8393      2.8713      2.9660      3.1186      3.3181      3.5463      3.7796    
  4.5176      4.7261      4.8355      4.8356      4.7263      4.5177      4.2303      3.8944      3.5474      3.2273    
  2.9660      2.7842      2.6918      2.6918      2.7842      2.9659      3.2273      3.5475      3.8945      4.2303    
  5.1492      5.3445      5.4096      5.3445      5.1492      4.8339      4.4313      3.9851      3.5461      3.1627    
  2.8713      2.6918      2.6315      2.6918      2.8713      3.1627      3.5460      3.9851      4.4313      4.8339    
  5.6956      5.7994      5.7993      5.6954      5.4595      5.0742      4.5777      4.0458      3.5441      3.1293    
  2.8393      2.6918      2.6918      2.8393      3.1294      3.5441      4.0457      4.5775      5.0741      5.4596    
  5.8569      5.8591      5.8568      5.8062      5.6131      5.2179      4.6639      4.0757      3.5432      3.1294    
  2.8713      2.7842      2.8713      3.1294      3.5432      4.0757      4.6639      5.2179      5.6131      5.8063    
  5.5022      5.5022      5.6282      5.7389      5.6522      5.2782      4.6920      4.0756      3.5441      3.1628    
  2.9660      2.9659      3.1627      3.5441      4.0757      4.6921      5.2783      5.6522      5.7389      5.6282    
  4.7889      4.9520      5.3268      5.6442      5.6530      5.2783      4.6639      4.0457      3.5460      3.2273    
  3.1186      3.2273      3.5460      4.0457      4.6639      5.2783      5.6529      5.6442      5.3268      4.9520    
  4.0966      4.5515      5.1920      5.6443      5.6523      5.2180      4.5777      3.9851      3.5473      3.3180    
  3.3181      3.5475      3.9851      4.5775      5.2179      5.6522      5.6442      5.1919      4.5514      4.0966    
  3.8120      4.5517      5.3271      5.7390      5.6132      5.0741      4.4313      3.8945      3.5463      3.4266    
  3.5463      3.8945      4.4313      5.0741      5.6131      5.7389      5.3268      4.5514      3.8119      3.5096    
  4.0970      4.9524      5.6285      5.8064      5.4595      4.8337      4.2302      3.7797      3.5423      3.5422    
  3.7796      4.2303      4.8339      5.4596      5.8063      5.6282      4.9520      4.0966      3.5096      3.5098    
  5.7895      5.8819      5.6389      5.1165      4.5176      3.9884      3.6042      3.4049      3.4049      3.6042    
  3.9885      4.5177      5.1165      5.6387      5.8817      5.7894      5.5022      5.2657      5.2657      5.5023    
  5.8819      5.7061      5.2642      4.7002      4.1621      3.7323      3.4605      3.3681      3.4604      3.7323    
  4.1622      4.7003      5.2642      5.7059      5.8817      5.8035      5.6281      5.5423      5.6281      5.8037    
  5.6389      5.2642      4.7635      4.2544      3.8156      3.5017      3.3403      3.3402      3.5016      3.8156    
  4.2545      4.7637      5.2642      5.6386      5.8016      5.7939      5.7387      5.7388      5.7943      5.8020    
  5.1165      4.7002      4.2544      3.8444      3.5236      3.3233      3.2557      3.3232      3.5235      3.8444    
  4.2546      4.7003      5.1165      5.4298      5.5948      5.6460      5.6520      5.6463      5.5953      5.4301    
  4.5176      4.1621      3.8156      3.5236      3.3176      3.2125      3.2125      3.3176      3.5236      3.8155    
  4.1622      4.5177      4.8339      5.0742      5.2178      5.2781      5.2783      5.2181      5.0743      4.8339    
  3.9884      3.7323      3.5017      3.3233      3.2125      3.1752      3.2125      3.3233      3.5016      3.7322    
  3.9885      4.2372      4.4478      4.6014      4.6920      4.7216      4.6922      4.6015      4.4477      4.2370    
  3.6042      3.4605      3.3403      3.2557      3.2125      3.2125      3.2557      3.3402      3.4604      3.6042    
  3.7541      3.8914      4.0012      4.0757      4.1127      4.1127      4.0757      4.0012      3.8913      3.7540    
  3.4049      3.3681      3.3402      3.3232      3.3176      3.3233      3.3402      3.3681      3.4049      3.4461    
  3.4860      3.5197      3.5441      3.5585      3.5632      3.5585      3.5441      3.5197      3.4861      3.4461    
  3.4049      3.4604      3.5016      3.5235      3.5236      3.5016      3.4604      3.4049      3.3410      3.2753    
  3.2139      3.1627      3.1261      3.1070      3.1070      3.1260      3.1627      3.2140      3.2753      3.3411    
  3.6042      3.7323      3.8156      3.8444      3.8155      3.7322      3.6042      3.4461      3.2753      3.1099    
  2.9660      2.8558      2.7871      2.7639      2.7872      2.8558      2.9660      3.1099      3.2752      3.4461    
  3.9885      4.1622      4.2545      4.2546      4.1622      3.9885      3.7541      3.4860      3.2139      2.9660    
  2.7645      2.6241      2.5525      2.5526      2.6241      2.7645      2.9660      3.2139      3.4860      3.7541    
  4.5177      4.7003      4.7637      4.7003      4.5177      4.2372      3.8914      3.5197      3.1627      2.8558    
  2.6241      2.4816      2.4337      2.4816      2.6241      2.8558      3.1628      3.5197      3.8914      4.2372    
  5.1165      5.2642      5.2642      5.1165      4.8339      4.4478      4.0012      3.5441      3.1261      2.7871    
  2.5525      2.4337      2.4337      2.5526      2.7871      3.1260      3.5441      4.0012      4.4479      4.8340    
  5.6387      5.7059      5.6386      5.4298      5.0742      4.6014      4.0757      3.5585      3.1070      2.7639    
  2.5526      2.4816      2.5526      2.7639      3.1070      3.5584      4.0756      4.6014      5.0743      5.4300    
  5.8817      5.8817      5.8016      5.5948      5.2178      4.6920      4.1127      3.5632      3.1070      2.7872    
  2.6241      2.6241      2.7871      3.1070      3.5632      4.1127      4.6920      5.2178      5.5949      5.8018    
  5.7894      5.8035      5.7939      5.6460      5.2781      4.7216      4.1127      3.5585      3.1260      2.8558    
  2.7645      2.8558      3.1260      3.5584      4.1127      4.7217      5.2782      5.6461      5.7940      5.8036    
  5.5022      5.6281      5.7387      5.6520      5.2783      4.6922      4.0757      3.5441      3.1627      2.9660    
  2.9660      3.1628      3.5441      4.0756      4.6920      5.2782      5.6521      5.7389      5.6283      5.5023    
  5.2657      5.5423      5.7388      5.6463      5.2181      4.6015      4.0012      3.5197      3.2140      3.1099    
  3.2139      3.5197      4.0012      4.6014      5.2178      5.6461      5.7389      5.5428      5.2662      5.1406    
  5.2657      5.6281      5.7943      5.5953      5.0743      4.4477      3.8913      3.4861      3.2753      3.2752    
  3.4860      3.8914      4.4479      5.0743      5.5949      5.7940      5.6283      5.2662      4.9828      4.9825    
  5.5023      5.8037      5.8020      5.4301      4.8339      4.2370      3.7540      3.4461      3.3411      3.4461    
  3.7541      4.2372      4.8340      5.4300      5.8018      5.8036      5.5023      5.1406      4.9825      5.1406    
  5.7867      5.4885      5.0147      4.4852      3.9926      3.6042      3.3605      3.2782      3.3606      3.6042    
  3.9925      4.4850      5.0147      5.4888      5.7871      5.8818      5.8570      5.8308      5.8569      5.8815    
  5.4885      5.0952      4.6221      4.1502      3.7471      3.4604      3.3136      3.3136      3.4604      3.7470    
  4.1500      4.6219      5.0952      5.4887      5.7219      5.8019      5.8064      5.8062      5.8015      5.7215    
  5.0147      4.6221      4.2053      3.8236      3.5258      3.3403      3.2777      3.3403      3.5258      3.8236    