fcc Si                                  
   3.90000000000000     
     0.500000    0.500000    0.000000
     0.000000    0.500000    0.500000
     0.500000    0.000000    0.500000
   Si
     1
Direct
  0.000000  0.000000  0.000000
 
   20   20   20
 -.25621278930E+01 -.17637285140E+01 0.29383603716E+00 0.27774762679E+01 0.47888349405E+01
 0.57894922777E+01 0.57871280230E+01 0.52153535057E+01 0.46008090879E+01 0.41813777767E+01
 0.40339669303E+01 0.41813777767E+01 0.46008090879E+01 0.52153535057E+01 0.57871280230E+01
 0.57894922777E+01 0.47888349405E+01 0.27774762679E+01 0.29383603716E+00 -.17637285140E+01
 -.17637285140E+01 -.33849657098E+00 0.19093822108E+01 0.40962768500E+01 0.55020684844E+01
 0.58817613578E+01 0.54887907183E+01 0.48408586402E+01 0.43149029108E+01 0.40291182934E+01
 0.40292479925E+01 0.43151263248E+01 0.48408757542E+01 0.54885733148E+01 0.58816721994E+01
 0.55023700024E+01 0.40966163517E+01 0.19091569686E+01 -.33922332815E+00 -.17641404009E+01
 0.29383603716E+00 0.19093822108E+01 0.38119046665E+01 0.52659153022E+01 0.58568817622E+01
 0.56386391201E+01 0.50146727628E+01 0.44178306683E+01 0.40173136125E+01 0.38775005000E+01
 0.40172739117E+01 0.44177992353E+01 0.50146808243E+01 0.56386514052E+01 0.58568497532E+01
 0.52658846009E+01 0.38120010525E+01 0.19096357052E+01 0.29407052935E+00 -.33922332815E+00
 0.27774762679E+01 0.40962768500E+01 0.52659153022E+01 0.58309236703E+01 0.56956218548E+01
 0.51163484646E+01 0.44849872911E+01 0.40034249559E+01 0.37469630266E+01 0.37468496155E+01
 0.40032332796E+01 0.44849618278E+01 0.51164746383E+01 0.56956098468E+01 0.58306702121E+01
 0.52658264845E+01 0.40968190473E+01 0.27784179411E+01 0.19096357052E+01 0.19091569686E+01
 0.47888349405E+01 0.55020684844E+01 0.58568817622E+01 0.56956218548E+01 0.51491839997E+01
 0.45175724049E+01 0.39924818699E+01 0.36528900412E+01 0.35363221045E+01 0.36528797047E+01
 0.39924854285E+01 0.45175927125E+01 0.51491919996E+01 0.56956150561E+01 0.58569241121E+01
 0.55022339727E+01 0.47890947088E+01 0.40968190473E+01 0.38120010525E+01 0.40966163517E+01
 0.57894922777E+01 0.58817613578E+01 0.56386391201E+01 0.51163484646E+01 0.45175724049E+01
 0.39884710437E+01 0.36042087198E+01 0.34048803598E+01 0.34049176697E+01 0.36042788210E+01
 0.39885241931E+01 0.45176357310E+01 0.51164579015E+01 0.56387412699E+01 0.58817598090E+01
 0.57893771347E+01 0.55022339727E+01 0.52658264845E+01 0.52658846009E+01 0.55023700024E+01
 0.57871280230E+01 0.54887907183E+01 0.50146727628E+01 0.44849872911E+01 0.39924818699E+01
 0.36042087198E+01 0.33605467905E+01 0.32781124003E+01 0.33605731269E+01 0.36042360975E+01
 0.39924937169E+01 0.44849900794E+01 0.50146750780E+01 0.54888069728E+01 0.57871809007E+01
 0.58817598090E+01 0.58569241121E+01 0.58306702121E+01 0.58568497532E+01 0.58816721994E+01
 0.52153535057E+01 0.48408586402E+01 0.44178306683E+01 0.40034249559E+01 0.36528900412E+01
 0.34048803598E+01 0.32781124003E+01 0.32781323438E+01 0.34049027191E+01 0.36528320685E+01
 0.40032571156E+01 0.44176785641E+01 0.48409017750E+01 0.52155902955E+01 0.54888069728E+01
 0.56387412699E+01 0.56956150561E+01 0.56956098468E+01 0.56386514052E+01 0.54885733148E+01
 0.46008090879E+01 0.43149029108E+01 0.40173136125E+01 0.37469630266E+01 0.35363221045E+01
 0.34049176697E+01 0.33605731269E+01 0.34049027191E+01 0.35362922449E+01 0.37469310228E+01
 0.40173037527E+01 0.43149275256E+01 0.46008522015E+01 0.48409017750E+01 0.50146750780E+01
 0.51164579015E+01 0.51491919996E+01 0.51164746383E+01 0.50146808243E+01 0.48408757542E+01
 0.41813777767E+01 0.40291182934E+01 0.38775005000E+01 0.37468496155E+01 0.36528797047E+01
 0.36042788210E+01 0.36042360975E+01 0.36528320685E+01 0.37469310228E+01 0.38777050057E+01
 0.40292643093E+01 0.41813127119E+01 0.43149275256E+01 0.44176785641E+01 0.44849900794E+01
 0.45176357310E+01 0.45175927125E+01 0.44849618278E+01 0.44177992353E+01 0.43151263248E+01
 0.40339669303E+01 0.40292479925E+01 0.40172739117E+01 0.40032332796E+01 0.39924854285E+01
 0.39885241931E+01 0.39924937169E+01 0.40032571156E+01 0.40173037527E+01 0.40292643093E+01
 0.40339732307E+01 0.40292643093E+01 0.40173037527E+01 0.40032571156E+01 0.39924937169E+01
 0.39885241931E+01 0.39924854285E+01 0.40032332796E+01 0.40172739117E+01 0.40292479925E+01
 0.41813777767E+01 0.43151263248E+01 0.44177992353E+01 0.44849618278E+01 0.45175927125E+01
 0.45176357310E+01 0.44849900794E+01 0.44176785641E+01 0.43149275256E+01 0.41813127119E+01
 0.40292643093E+01 0.38777050057E+01 0.37469310228E+01 0.36528320685E+01 0.36042360975E+01
 0.36042788210E+01 0.36528797047E+01 0.37468496155E+01 0.38775005000E+01 0.40291182934E+01
 0.46008090879E+01 0.48408757542E+01 0.50146808243E+01 0.51164746383E+01 0.51491919996E+01
 0.51164579015E+01 0.50146750780E+01 0.48409017750E+01 0.46008522015E+01 0.43149275256E+01
 0.40173037527E+01 0.37469310228E+01 0.35362922449E+01 0.34049027191E+01 0.33605731269E+01
 0.34049176697E+01 0.35363221045E+01 0.37469630266E+01 0.40173136125E+01 0.43149029108E+01
 0.52153535057E+01 0.54885733148E+01 0.56386514052E+01 0.56956098468E+01 0.56956150561E+01
 0.56387412699E+01 0.54888069728E+01 0.52155902955E+01 0.48409017750E+01 0.44176785641E+01
 0.40032571156E+01 0.36528320685E+01 0.34049027191E+01 0.32781323438E+01 0.32781124003E+01
 0.34048803598E+01 0.36528900412E+01 0.40034249559E+01 0.44178306683E+01 0.48408586402E+01
 0.57871280230E+01 0.58816721994E+01 0.58568497532E+01 0.58306702121E+01 0.58569241121E+01
 0.58817598090E+01 0.57871809007E+01 0.54888069728E+01 0.50146750780E+01 0.44849900794E+01
 0.39924937169E+01 0.36042360975E+01 0.33605731269E+01 0.32781124003E+01 0.33605467905E+01
 0.36042087198E+01 0.39924818699E+01 0.44849872911E+01 0.50146727628E+01 0.54887907183E+01
 0.57894922777E+01 0.55023700024E+01 0.52658846009E+01 0.52658264845E+01 0.55022339727E+01
 0.57893771347E+01 0.58817598090E+01 0.56387412699E+01 0.51164579015E+01 0.45176357310E+01
 0.39885241931E+01 0.36042788210E+01 0.34049176697E+01 0.34048803598E+01 0.36042087198E+01
 0.39884710437E+01 0.45175724049E+01 0.51163484646E+01 0.56386391201E+01 0.58817613578E+01
 0.47888349405E+01 0.40966163517E+01 0.38120010525E+01 0.40968190473E+01 0.47890947088E+01
 0.55022339727E+01 0.58569241121E+01 0.56956150561E+01 0.51491919996E+01 0.45175927125E+01
 0.39924854285E+01 0.36528797047E+01 0.35363221045E+01 0.36528900412E+01 0.39924818699E+01
 0.45175724049E+01 0.51491839997E+01 0.56956218548E+01 0.58568817622E+01 0.55020684844E+01
 0.27774762679E+01 0.19091569686E+01 0.19096357052E+01 0.27784179411E+01 0.40968190473E+01
 0.52658264845E+01 0.58306702121E+01 0.56956098468E+01 0.51164746383E+01 0.44849618278E+01
 0.40032332796E+01 0.37468496155E+01 0.37469630266E+01 0.40034249559E+01 0.44849872911E+01
 0.51163484646E+01 0.56956218548E+01 0.58309236703E+01 0.52659153022E+01 0.40962768500E+01
 0.29383603716E+00 -.33922332815E+00 0.29407052935E+00 0.19096357052E+01 0.38120010525E+01
 0.52658846009E+01 0.58568497532E+01 0.56386514052E+01 0.50146808243E+01 0.44177992353E+01
 0.40172739117E+01 0.38775005000E+01 0.40173136125E+01 0.44178306683E+01 0.50146727628E+01
 0.56386391201E+01 0.58568817622E+01 0.52659153022E+01 0.38119046665E+01 0.19093822108E+01
 -.17637285140E+01 -.17641404009E+01 -.33922332815E+00 0.19091569686E+01 0.40966163517E+01
 0.55023700024E+01 0.58816721994E+01 0.54885733148E+01 0.48408757542E+01 0.43151263248E+01
 0.40292479925E+01 0.40291182934E+01 0.43149029108E+01 0.48408586402E+01 0.54887907183E+01
 0.58817613578E+01 0.55020684844E+01 0.40962768500E+01 0.19093822108E+01 -.33849657098E+00
 -.17639878728E+01 -.33838882722E+00 0.19097690823E+01 0.40966139242E+01 0.55021189277E+01
 0.58816534624E+01 0.54887848982E+01 0.48409550121E+01 0.43149184988E+01 0.40290484958E+01
 0.40292541700E+01 0.43152135182E+01 0.48408875988E+01 0.54885066730E+01 0.58817067553E+01
 0.55025406515E+01 0.40967008532E+01 0.19089552721E+01 -.33966778304E+00 -.17646130535E+01
 -.33838882722E+00 0.14209998300E+01 0.35101372763E+01 0.51405606509E+01 0.58589315549E+01
 0.57057857212E+01 0.50952964343E+01 0.44916796068E+01 0.40843547786E+01 0.39418424398E+01
 0.40843680107E+01 0.44916419385E+01 0.50952328456E+01 0.57058905583E+01 0.58593063645E+01
 0.51408192734E+01 0.35096065733E+01 0.14196108435E+01 -.33965382333E+00 -.10262271512E+01
 0.19097690823E+01 0.35101372763E+01 0.49827831700E+01 0.57918628194E+01 0.57992644663E+01
 0.52640910675E+01 0.46219278743E+01 0.41247501401E+01 0.38583316288E+01 0.38582399073E+01
 0.41245592300E+01 0.46218261112E+01 0.52642078445E+01 0.57995178417E+01 0.57919881370E+01
 0.49825582505E+01 0.35096004145E+01 0.19092169017E+01 0.87045691476E+00 0.87068844652E+00
 0.40966139242E+01 0.51405606509E+01 0.57918628194E+01 0.58217520068E+01 0.53446079242E+01
 0.47002609754E+01 0.41500022493E+01 0.37904289328E+01 0.36664842039E+01 0.37905096605E+01
 0.41499890229E+01 0.47001244008E+01 0.53445120271E+01 0.58217660339E+01 0.57918884756E+01
 0.51405627081E+01 0.40966657421E+01 0.31433018167E+01 0.27592217834E+01 0.31432175137E+01
 0.55021189277E+01 0.58589315549E+01 0.57992644663E+01 0.53446079242E+01 0.47263401878E+01
 0.41621801988E+01 0.37470092188E+01 0.35301641328E+01 0.35302611775E+01 0.37471580839E+01
 0.41621583115E+01 0.47261590946E+01 0.53445011443E+01 0.57993693172E+01 0.58591124904E+01
 0.55021625511E+01 0.49520386380E+01 0.45515642918E+01 0.45516389677E+01 0.49521463807E+01
 0.58816534624E+01 0.57057857212E+01 0.52640910675E+01 0.47002609754E+01 0.41621801988E+01
 0.37322857824E+01 0.34604448790E+01 0.33681417824E+01 0.34604540299E+01 0.37322879497E+01
 0.41621789368E+01 0.47002939840E+01 0.52641764886E+01 0.57058622480E+01 0.58816117499E+01
 0.58035019320E+01 0.56282529958E+01 0.55425986284E+01 0.56284203567E+01 0.58036760769E+01
 0.54887848982E+01 0.50952964343E+01 0.46219278743E+01 0.41500022493E+01 0.37470092188E+01
 0.34604448790E+01 0.33135705369E+01 0.33135551703E+01 0.34604268044E+01 0.37470263592E+01
 0.41500289648E+01 0.46218940093E+01 0.50951919037E+01 0.54887178587E+01 0.57218548837E+01
 0.58018247807E+01 0.58063544511E+01 0.58062623340E+01 0.58016504631E+01 0.57217759242E+01
 0.48409550121E+01 0.44916796068E+01 0.41247501401E+01 0.37904289328E+01 0.35301641328E+01
 0.33681417824E+01 0.33135551703E+01 0.33681691272E+01 0.35302093177E+01 0.37904085381E+01
 0.41245780305E+01 0.44914372451E+01 0.48408621913E+01 0.51292808923E+01 0.53272981181E+01
 0.54300509424E+01 0.54597118638E+01 0.54298068791E+01 0.53269713747E+01 0.51291063305E+01
 0.43149184988E+01 0.40843547786E+01 0.38583316288E+01 0.36664842039E+01 0.35302611775E+01
 0.34604540299E+01 0.34604268044E+01 0.35302093177E+01 0.36664545963E+01 0.38583298986E+01
 0.40843524254E+01 0.43149070280E+01 0.45202768233E+01 0.46793558399E+01 0.47835785722E+01
 0.48339651095E+01 0.48339449278E+01 0.47835344985E+01 0.46793223778E+01 0.45202731278E+01
 0.40290484958E+01 0.39418424398E+01 0.38582399073E+01 0.37905096605E+01 0.37471580839E+01
 0.37322879497E+01 0.37470263592E+01 0.37904085381E+01 0.38583298986E+01 0.39420921436E+01
 0.40292379531E+01 0.41072523018E+01 0.41677315476E+01 0.42081128379E+01 0.42302204550E+01
 0.42371191716E+01 0.42302597139E+01 0.42082535920E+01 0.41679137243E+01 0.41072875036E+01
 0.40292541700E+01 0.40843680107E+01 0.41245592300E+01 0.41499890229E+01 0.41621583115E+01
 0.41621789368E+01 0.41500289648E+01 0.41245780305E+01 0.40843524254E+01 0.40292379531E+01
 0.39625589957E+01 0.38919390257E+01 0.38276995368E+01 0.37795683088E+01 0.37540712348E+01
 0.37540873882E+01 0.37795870327E+01 0.38276798515E+01 0.38918947448E+01 0.39625381183E+01
 0.43152135182E+01 0.44916419385E+01 0.46218261112E+01 0.47001244008E+01 0.47261590946E+01
 0.47002939840E+01 0.46218940093E+01 0.44914372451E+01 0.43149070280E+01 0.41072523018E+01
 0.38919390257E+01 0.36958819496E+01 0.35423259343E+01 0.34460540486E+01 0.34135106092E+01
 0.34461085666E+01 0.35422735373E+01 0.36956731800E+01 0.38917747322E+01 0.41073559850E+01
 0.48408875988E+01 0.50952328456E+01 0.52642078445E+01 0.53445120271E+01 0.53445011443E+01
 0.52641764886E+01 0.50951919037E+01 0.48408621913E+01 0.45202768233E+01 0.41677315476E+01
 0.38276995368E+01 0.35423259343E+01 0.33410418438E+01 0.32382314132E+01 0.32382396487E+01
 0.33410642290E+01 0.35423503154E+01 0.38277080601E+01 0.41677249487E+01 0.45202768712E+01
 0.54885066730E+01 0.57058905583E+01 0.57995178417E+01 0.58217660339E+01 0.57993693172E+01
 0.57058622480E+01 0.54887178587E+01 0.51292808923E+01 0.46793558399E+01 0.42081128379E+01
 0.37795683088E+01 0.34460540486E+01 0.32382314132E+01 0.31681060510E+01 0.32381730249E+01
 0.34460590710E+01 0.37797176582E+01 0.42082922421E+01 0.46793432247E+01 0.51290458295E+01
 0.58817067553E+01 0.58593063645E+01 0.57919881370E+01 0.57918884756E+01 0.58591124904E+01
 0.58816117499E+01 0.57218548837E+01 0.53272981181E+01 0.47835785722E+01 0.42302204550E+01
 0.37540712348E+01 0.34135106092E+01 0.32382396487E+01 0.32381730249E+01 0.34133975005E+01
 0.37540470333E+01 0.42302726790E+01 0.47835795312E+01 0.53272065531E+01 0.57217930931E+01
 0.55025406515E+01 0.51408192734E+01 0.49825582505E+01 0.51405627081E+01 0.55021625511E+01
 0.58035019320E+01 0.58018247807E+01 0.54300509424E+01 0.48339651095E+01 0.42371191716E+01
 0.37540873882E+01 0.34461085666E+01 0.33410642290E+01 0.34460590710E+01 0.37540470333E+01
 0.42370599336E+01 0.48338090130E+01 0.54298666344E+01 0.58018207984E+01 0.58037670456E+01
 0.40967008532E+01 0.35096065733E+01 0.35096004145E+01 0.40966657421E+01 0.49520386380E+01
 0.56282529958E+01 0.58063544511E+01 0.54597118638E+01 0.48339449278E+01 0.42302597139E+01
 0.37795870327E+01 0.35422735373E+01 0.35423503154E+01 0.37797176582E+01 0.42302726790E+01
 0.48338090130E+01 0.54595578506E+01 0.58063091330E+01 0.56283113903E+01 0.49521123224E+01
 0.19089552721E+01 0.14196108435E+01 0.19092169017E+01 0.31433018167E+01 0.45515642918E+01
 0.55425986284E+01 0.58062623340E+01 0.54298068791E+01 0.47835344985E+01 0.42082535920E+01
 0.38276798515E+01 0.36956731800E+01 0.38277080601E+01 0.42082922421E+01 0.47835795312E+01
 0.54298666344E+01 0.58063091330E+01 0.55425434218E+01 0.45513359108E+01 0.31429597345E+01
 -.33966778304E+00 -.33965382333E+00 0.87045691476E+00 0.27592217834E+01 0.45516389677E+01
 0.56284203567E+01 0.58016504631E+01 0.53269713747E+01 0.46793223778E+01 0.41679137243E+01
 0.38918947448E+01 0.38917747322E+01 0.41677249487E+01 0.46793432247E+01 0.53272065531E+01
 0.58018207984E+01 0.56283113903E+01 0.45513359108E+01 0.27589630217E+01 0.87035351718E+00
 -.17646130535E+01 -.10262271512E+01 0.87068844652E+00 0.31432175137E+01 0.49521463807E+01
 0.58036760769E+01 0.57217759242E+01 0.51291063305E+01 0.45202731278E+01 0.41072875036E+01
 0.39625381183E+01 0.41073559850E+01 0.45202768712E+01 0.51290458295E+01 0.57217930931E+01
 0.58037670456E+01 0.49521123224E+01 0.31429597345E+01 0.87035351718E+00 -.10264386784E+01
 0.29344195358E+00 0.19092162474E+01 0.38120388947E+01 0.52661524034E+01 0.58569828859E+01
 0.56386173956E+01 0.50146939730E+01 0.44179119528E+01 0.40173366803E+01 0.38774620922E+01
 0.40172875955E+01 0.44178706910E+01 0.50147038921E+01 0.56386262033E+01 0.58568981417E+01
 0.52660296848E+01 0.38121021762E+01 0.19095588149E+01 0.29379511870E+00 -.33963366582E+00
 0.19092162474E+01 0.35098743573E+01 0.49829218430E+01 0.57921276204E+01 0.57993512163E+01
 0.52640324368E+01 0.46219336577E+01 0.41248395333E+01 0.38583620891E+01 0.38581980125E+01
 0.41245654074E+01 0.46218925914E+01 0.52642246149E+01 0.57994736097E+01 0.57920110894E+01
 0.49827199146E+01 0.35098090964E+01 0.19092981179E+01 0.87026065841E+00 0.87019972585E+00
 0.38120388947E+01 0.49829218430E+01 0.57492974615E+01 0.58556330701E+01 0.54095847081E+01
 0.47635503974E+01 0.42051727325E+01 0.38388384581E+01 0.37122427973E+01 0.38387833538E+01
 0.42051162087E+01 0.47635307448E+01 0.54095805568E+01 0.58555967938E+01 0.57492251384E+01
 0.49828584124E+01 0.38120181639E+01 0.27587750008E+01 0.23367752379E+01 0.27587667654E+01
 0.52661524034E+01 0.57921276204E+01 0.58556330701E+01 0.54560348776E+01 0.48355487196E+01
 0.42545207475E+01 0.38235854831E+01 0.35975146832E+01 0.35975921886E+01 0.38237067351E+01
 0.42545286582E+01 0.48354488036E+01 0.54559076878E+01 0.58554957807E+01 0.57920265576E+01
 0.52662087845E+01 0.45514585776E+01 0.40488833269E+01 0.40487663024E+01 0.45512582889E+01
 0.58569828859E+01 0.57993512163E+01 0.54095847081E+01 0.48355487196E+01 0.42711420470E+01
 0.38156287617E+01 0.35258302421E+01 0.34271339737E+01 0.35258533391E+01 0.38156394316E+01
 0.42711282598E+01 0.48355329376E+01 0.54095730823E+01 0.57993105955E+01 0.58568896922E+01
 0.56282452118E+01 0.53267140845E+01 0.51917709000E+01 0.53267915060E+01 0.56283595852E+01
 0.56386173956E+01 0.52640324368E+01 0.47635503974E+01 0.42545207475E+01 0.38156287617E+01
 0.35017031162E+01 0.33402524246E+01 0.33402136227E+01 0.35016204276E+01 0.38155692442E+01
 0.42545441695E+01 0.47636801040E+01 0.52641961631E+01 0.56386254380E+01 0.58015982091E+01
 0.57938891394E+01 0.57387588755E+01 0.57389757214E+01 0.57943331273E+01 0.58018903812E+01
 0.50146939730E+01 0.46219336577E+01 0.42051727325E+01 0.38235854831E+01 0.35258302421E+01
 0.33402524246E+01 0.32776981271E+01 0.33402656253E+01 0.35258327373E+01 0.38235649453E+01
 0.42051444539E+01 0.46219143824E+01 0.50146636615E+01 0.53271560346E+01 0.55155275199E+01
 0.55948873455E+01 0.56131676317E+01 0.55949744981E+01 0.55156377765E+01 0.53272295055E+01
 0.44179119528E+01 0.41248395333E+01 0.38388384581E+01 0.35975146832E+01 0.34271339737E+01
 0.33402136227E+01 0.33402656253E+01 0.34272435561E+01 0.35975641638E+01 0.38387267413E+01
 0.41245968761E+01 0.44177061574E+01 0.46793137047E+01 0.48814419713E+01 0.50127081734E+01
 0.50743150215E+01 0.50742388212E+01 0.50125288109E+01 0.48812937117E+01 0.46793353631E+01
 0.40173366803E+01 0.38583620891E+01 0.37122427973E+01 0.35975921886E+01 0.35258533391E+01
 0.35016204276E+01 0.35258327373E+01 0.35975641638E+01 0.37122113043E+01 0.38583251940E+01
 0.40173052969E+01 0.41677129165E+01 0.42918252427E+01 0.43801662575E+01 0.44313460846E+01
 0.44478932645E+01 0.44313490706E+01 0.43801606220E+01 0.42918164914E+01 0.41677219210E+01
 0.38774620922E+01 0.38581980125E+01 0.38387833538E+01 0.38237067351E+01 0.38156394316E+01
 0.38155692442E+01 0.38235649453E+01 0.38387267413E+01 0.38583251940E+01 0.38776839166E+01
 0.38918947490E+01 0.38983570461E+01 0.38980106210E+01 0.38943590896E+01 0.38913147083E+01
 0.38913385261E+01 0.38944578640E+01 0.38981695841E+01 0.38984381580E+01 0.38917822214E+01
 0.40172875955E+01 0.41245654074E+01 0.42051162087E+01 0.42545286582E+01 0.42711282598E+01
 0.42545441695E+01 0.42051444539E+01 0.41245968761E+01 0.40173052969E+01 0.38918947490E+01
 0.37614424774E+01 0.36414807557E+01 0.35463297062E+01 0.34859681747E+01 0.34653910224E+01
 0.34859641698E+01 0.35463335142E+01 0.36414993052E+01 0.37614646527E+01 0.38919009223E+01
 0.44178706910E+01 0.46218925914E+01 0.47635307448E+01 0.48354488036E+01 0.48355329376E+01
 0.47636801040E+01 0.46219143824E+01 0.44177061574E+01 0.41677129165E+01 0.38983570461E+01
 0.36414807557E+01 0.34267726465E+01 0.32752891451E+01 0.31977959488E+01 0.31978075056E+01
 0.32752719367E+01 0.34266776726E+01 0.36413939250E+01 0.38984188496E+01 0.41679164414E+01
 0.50147038921E+01 0.52642246149E+01 0.54095805568E+01 0.54559076878E+01 0.54095730823E+01
 0.52641961631E+01 0.50146636615E+01 0.46793137047E+01 0.42918252427E+01 0.38980106210E+01
 0.35463297062E+01 0.32752891451E+01 0.31071651775E+01 0.30505610871E+01 0.31071862831E+01
 0.32753177160E+01 0.35463422445E+01 0.38980003657E+01 0.42918164914E+01 0.46793330400E+01
 0.56386262033E+01 0.57994736097E+01 0.58555967938E+01 0.58554957807E+01 0.57993105955E+01
 0.56386254380E+01 0.53271560346E+01 0.48814419713E+01 0.43801662575E+01 0.38943590896E+01
 0.34859681747E+01 0.31977959488E+01 0.30505610871E+01 0.30505440404E+01 0.31977850233E+01
 0.34860252018E+01 0.38944607820E+01 0.43801859790E+01 0.48813096431E+01 0.53269935354E+01
 0.58568981417E+01 0.57920110894E+01 0.57492251384E+01 0.57920265576E+01 0.58568896922E+01
 0.58015982091E+01 0.55155275199E+01 0.50127081734E+01 0.44313460846E+01 0.38913147083E+01
 0.34653910224E+01 0.31978075056E+01 0.31071862831E+01 0.31977850233E+01 0.34653487674E+01
 0.38912748714E+01 0.44313449506E+01 0.50127647287E+01 0.55156105983E+01 0.58016562465E+01
 0.52660296848E+01 0.49827199146E+01 0.49828584124E+01 0.52662087845E+01 0.56282452118E+01
 0.57938891394E+01 0.55948873455E+01 0.50743150215E+01 0.44478932645E+01 0.38913385261E+01
 0.34859641698E+01 0.32752719367E+01 0.32753177160E+01 0.34860252018E+01 0.38912748714E+01
 0.44477104627E+01 0.50742429022E+01 0.55951182175E+01 0.57942568741E+01 0.56283732478E+01
 0.38121021762E+01 0.35098090964E+01 0.38120181639E+01 0.45514585776E+01 0.53267140845E+01
 0.57387588755E+01 0.56131676317E+01 0.50742388212E+01 0.44313490706E+01 0.38944578640E+01
 0.35463335142E+01 0.34266776726E+01 0.35463422445E+01 0.38944607820E+01 0.44313449506E+01
 0.50742429022E+01 0.56131889349E+01 0.57388030860E+01 0.53267915060E+01 0.45515652307E+01
 0.19095588149E+01 0.19092981179E+01 0.27587750008E+01 0.40488833269E+01 0.51917709000E+01
 0.57389757214E+01 0.55949744981E+01 0.50125288109E+01 0.43801606220E+01 0.38981695841E+01
 0.36414993052E+01 0.36413939250E+01 0.38980003657E+01 0.43801859790E+01 0.50127647287E+01
 0.55951182175E+01 0.57388030860E+01 0.51915192340E+01 0.40489897388E+01 0.27592241435E+01
 0.29379511870E+00 0.87026065841E+00 0.23367752379E+01 0.40487663024E+01 0.53267915060E+01
 0.57943331273E+01 0.55156377765E+01 0.48812937117E+01 0.42918164914E+01 0.38984381580E+01
 0.37614646527E+01 0.38984188496E+01 0.42918164914E+01 0.48813096431E+01 0.55156105983E+01
 0.57942568741E+01 0.53267915060E+01 0.40489897388E+01 0.23371848768E+01 0.87059558775E+00
 -.33963366582E+00 0.87019972585E+00 0.27587667654E+01 0.45512582889E+01 0.56283595852E+01
 0.58018903812E+01 0.53272295055E+01 0.46793353631E+01 0.41677219210E+01 0.38917822214E+01
 0.38919009223E+01 0.41679164414E+01 0.46793330400E+01 0.53269935354E+01 0.58016562465E+01
 0.56283732478E+01 0.45515652307E+01 0.27592241435E+01 0.87059558775E+00 -.33947821006E+00
 0.27776149778E+01 0.40962158554E+01 0.52657202174E+01 0.58307817539E+01 0.56956188541E+01
 0.51164091450E+01 0.44850162638E+01 0.40034166595E+01 0.37469594342E+01 0.37468619823E+01
 0.40032424661E+01 0.44849609318E+01 0.51164805520E+01 0.56956368405E+01 0.58306979014E+01
 0.52658051067E+01 0.40967365262E+01 0.27783591579E+01 0.19097135810E+01 0.19093533408E+01
 0.40962158554E+01 0.51402292166E+01 0.57917772601E+01 0.58218304796E+01 0.53446613681E+01
 0.47002501383E+01 0.41500138351E+01 0.37904785191E+01 0.36665033843E+01 0.37904904686E+01
 0.41499920319E+01 0.47001559278E+01 0.53445179580E+01 0.58217437225E+01 0.57919048160E+01
 0.51406638289E+01 0.40968327649E+01 0.31434615136E+01 0.27592477171E+01 0.31429997035E+01
 0.52657202174E+01 0.57917772601E+01 0.58555799564E+01 0.54561452129E+01 0.48355880270E+01
 0.42544686399E+01 0.38235681138E+01 0.35975566929E+01 0.35976106533E+01 0.38236815790E+01
 0.42545194717E+01 0.48354696785E+01 0.54559066999E+01 0.58554505047E+01 0.57919872648E+01
 0.52662618693E+01 0.45516652791E+01 0.40491843306E+01 0.40489366250E+01 0.45510865407E+01
 0.58307817539E+01 0.58218304796E+01 0.54561452129E+01 0.48815252109E+01 0.43084881678E+01
 0.38444024440E+01 0.35486054359E+01 0.34477587210E+01 0.35486077599E+01 0.38444911669E+01
 0.43086451922E+01 0.48815459983E+01 0.54558811509E+01 0.58215034052E+01 0.58308562293E+01
 0.55428896383E+01 0.51920489840E+01 0.50376316152E+01 0.51914317267E+01 0.55422871080E+01
 0.56956188541E+01 0.53446613681E+01 0.48355880270E+01 0.43084881678E+01 0.38514966712E+01
 0.35236061032E+01 0.33546559526E+01 0.33546048421E+01 0.35235545526E+01 0.38515877778E+01
 0.43086626646E+01 0.48356186760E+01 0.53444686862E+01 0.56954277051E+01 0.58062980707E+01
 0.57389725417E+01 0.56441551814E+01 0.56439917540E+01 0.57386819063E+01 0.58062216308E+01
 0.51164091450E+01 0.47002501383E+01 0.42544686399E+01 0.38444024440E+01 0.35236061032E+01
 0.33233178415E+01 0.32556894488E+01 0.33232391835E+01 0.35235585362E+01 0.38444478513E+01
 0.42545653723E+01 0.47003437618E+01 0.51164627846E+01 0.54298500873E+01 0.55948623329E+01
 0.56460639976E+01 0.56520696390E+01 0.56462159277E+01 0.55950130331E+01 0.54298885021E+01
 0.44850162638E+01 0.41500138351E+01 0.38235681138E+01 0.35486054359E+01 0.33546559526E+01
 0.32556894488E+01 0.32556774171E+01 0.33546367381E+01 0.35486073328E+01 0.38235972670E+01
 0.41500523305E+01 0.44850396371E+01 0.47835665290E+01 0.50126764398E+01 0.51551866634E+01
 0.52177823360E+01 0.52178230093E+01 0.51552747197E+01 0.50127473595E+01 0.47835851143E+01
 0.40034166595E+01 0.37904785191E+01 0.35975566929E+01 0.34477587210E+01 0.33546048421E+01
 0.33232391835E+01 0.33546367381E+01 0.34478088519E+01 0.35975838201E+01 0.37904332432E+01
 0.40032980504E+01 0.42081468416E+01 0.43802062570E+01 0.45046675050E+01 0.45776480051E+01
 0.46013536409E+01 0.45775545731E+01 0.45045823939E+01 0.43802253546E+01 0.42082620928E+01
 0.37469594342E+01 0.36665033843E+01 0.35976106533E+01 0.35486077599E+01 0.35235545526E+01
 0.35235585362E+01 0.35486073328E+01 0.35975838201E+01 0.36664520828E+01 0.37469212538E+01
 0.38277016939E+01 0.38980398123E+01 0.39511187529E+01 0.39850579105E+01 0.40011963058E+01
 0.40012070215E+01 0.39850665640E+01 0.39510942828E+01 0.38979990323E+01 0.38276926231E+01
 0.37468619823E+01 0.37904904686E+01 0.38236815790E+01 0.38444911669E+01 0.38515877778E+01
 0.38444478513E+01 0.38235972670E+01 0.37904332432E+01 0.37469212538E+01 0.36958368434E+01
 0.36414681730E+01 0.35897747982E+01 0.35473230410E+01 0.35196251745E+01 0.35100625262E+01
 0.35197103863E+01 0.35474241463E+01 0.35897856814E+01 0.36413487825E+01 0.36956809152E+01
 0.40032424661E+01 0.41499920319E+01 0.42545194717E+01 0.43086451922E+01 0.43086626646E+01
 0.42545653723E+01 0.41500523305E+01 0.40032980504E+01 0.38277016939E+01 0.36414681730E+01
 0.34652234862E+01 0.33180645842E+01 0.32139331409E+01 0.31604491713E+01 0.31604419870E+01
 0.32139317165E+01 0.33180952976E+01 0.34652715228E+01 0.36414901188E+01 0.38276768426E+01
 0.44849609318E+01 0.47001559278E+01 0.48354696785E+01 0.48815459983E+01 0.48356186760E+01
 0.47003437618E+01 0.44850396371E+01 0.42081468416E+01 0.38980398123E+01 0.35897747982E+01
 0.33180645842E+01 0.31098883796E+01 0.29809515588E+01 0.29375248098E+01 0.29809236722E+01
 0.31098369233E+01 0.33180475769E+01 0.35898612319E+01 0.38981960663E+01 0.42082335218E+01
 0.51164805520E+01 0.53445179580E+01 0.54559066999E+01 0.54558811509E+01 0.53444686862E+01
 0.51164627846E+01 0.47835665290E+01 0.43802062570E+01 0.39511187529E+01 0.35473230410E+01
 0.32139331409E+01 0.29809515588E+01 0.28624310868E+01 0.28624287798E+01 0.29809575496E+01
 0.32139563804E+01 0.35473346783E+01 0.39510847768E+01 0.43801398359E+01 0.47835248242E+01
 0.56956368405E+01 0.58217437225E+01 0.58554505047E+01 0.58215034052E+01 0.56954277051E+01
 0.54298500873E+01 0.50126764398E+01 0.45046675050E+01 0.39850579105E+01 0.35196251745E+01
 0.31604491713E+01 0.29375248098E+01 0.28624287798E+01 0.29375160451E+01 0.31604860603E+01
 0.35196974165E+01 0.39850481451E+01 0.45044936447E+01 0.50124553069E+01 0.54298097535E+01
 0.58306979014E+01 0.57919048160E+01 0.57919872648E+01 0.58308562293E+01 0.58062980707E+01
 0.55948623329E+01 0.51551866634E+01 0.45776480051E+01 0.40011963058E+01 0.35100625262E+01
 0.31604419870E+01 0.29809236722E+01 0.29809575496E+01 0.31604860603E+01 0.35100410361E+01
 0.40011442474E+01 0.45776713734E+01 0.51552966432E+01 0.55949352054E+01 0.58062288246E+01
 0.52658051067E+01 0.51406638289E+01 0.52662618693E+01 0.55428896383E+01 0.57389725417E+01
 0.56460639976E+01 0.52177823360E+01 0.46013536409E+01 0.40012070215E+01 0.35197103863E+01
 0.32139317165E+01 0.31098369233E+01 0.32139563804E+01 0.35196974165E+01 0.40011442474E+01
 0.46013685108E+01 0.52180093072E+01 0.56463752046E+01 0.57390013233E+01 0.55424864769E+01
 0.40967365262E+01 0.40968327649E+01 0.45516652791E+01 0.51920489840E+01 0.56441551814E+01
 0.56520696390E+01 0.52178230093E+01 0.45775545731E+01 0.39850665640E+01 0.35474241463E+01
 0.33180952976E+01 0.33180475769E+01 0.35473346783E+01 0.39850481451E+01 0.45776713734E+01
 0.52180093072E+01 0.56521727146E+01 0.56440712745E+01 0.51918171145E+01 0.45514313274E+01
 0.27783591579E+01 0.31434615136E+01 0.40491843306E+01 0.50376316152E+01 0.56439917540E+01
 0.56462159277E+01 0.51552747197E+01 0.45045823939E+01 0.39510942828E+01 0.35897856814E+01
 0.34652715228E+01 0.35898612319E+01 0.39510847768E+01 0.45044936447E+01 0.51552966432E+01
 0.56463752046E+01 0.56440712745E+01 0.50374987098E+01 0.40489608942E+01 0.31433199610E+01
 0.19097135810E+01 0.27592477171E+01 0.40489366250E+01 0.51914317267E+01 0.57386819063E+01
 0.55950130331E+01 0.50127473595E+01 0.43802253546E+01 0.38979990323E+01 0.36413487825E+01
 0.36414901188E+01 0.38981960663E+01 0.43801398359E+01 0.50124553069E+01 0.55949352054E+01
 0.57390013233E+01 0.51918171145E+01 0.40489608942E+01 0.27589453235E+01 0.19095258974E+01
 0.19093533408E+01 0.31429997035E+01 0.45510865407E+01 0.55422871080E+01 0.58062216308E+01
 0.54298885021E+01 0.47835851143E+01 0.42082620928E+01 0.38276926231E+01 0.36956809152E+01
 0.38276768426E+01 0.42082335218E+01 0.47835248242E+01 0.54298097535E+01 0.58062288246E+01
 0.55424864769E+01 0.45514313274E+01 0.31433199610E+01 0.19095258974E+01 0.14201201189E+01
 0.47893301478E+01 0.55023782865E+01 0.58568817622E+01 0.56954801442E+01 0.51491004304E+01
 0.45175700730E+01 0.39924818699E+01 0.36528650631E+01 0.35363022823E+01 0.36528778181E+01
 0.39924854285E+01 0.45175857715E+01 0.51491876753E+01 0.56956234373E+01 0.58569241121E+01
 0.55021564757E+01 0.47888926850E+01 0.40965978163E+01 0.38120010525E+01 0.40969602121E+01
 0.55023782865E+01 0.58590261082E+01 0.57991533522E+01 0.53444548680E+01 0.47262897446E+01
 0.41622087118E+01 0.37470226200E+01 0.35301422456E+01 0.35302455895E+01 0.37471631124E+01