    1    1    1    1
  0.1482975E+02  0.2757716E-09  0.2757716E-09  0.2757716E-09  0.5000000E-15
  1.000000000000000E-004
  CAR 
 fcc Si                                  
      4    286      6
 
  0.0000000E+00  0.0000000E+00  0.0000000E+00  0.1079797E-03
    1       -4.378491
    2       20.694386
    3       20.694563
    4       20.694566
    5       21.770914
    6       21.771014
 
  0.4761905E-01  0.0000000E+00  0.0000000E+00  0.8638376E-03
    1       -4.313273
    2       19.448875
    3       20.341805
    4       20.341971
    5       22.238920
    6       22.239033
 
  0.9523810E-01  0.0000000E+00  0.0000000E+00  0.8638376E-03
    1       -4.118507
    2       17.543566
    3       19.794161
    4       19.794328
    5       22.877140
    6       22.999474
 
  0.1428571E+00  0.0000000E+00  0.0000000E+00  0.8638376E-03
    1       -3.794349
    2       15.541883
    3       19.298257
    4       19.298426
    5       22.947844
    6       23.697960
 
  0.1904762E+00  0.0000000E+00  0.0000000E+00  0.8638376E-03
    1       -3.341536
    2       13.547764
    3       18.891054
    4       18.891227
    5       22.883226
    6       23.882917
 
  0.2380952E+00  0.0000000E+00  0.0000000E+00  0.8638376E-03
    1       -2.760980
    2       11.616169
    3       18.579774
    4       18.579947
    5       22.801161
    6       23.393545
 
  0.2857143E+00  0.0000000E+00  0.0000000E+00  0.8638376E-03
    1       -2.053967
    2        9.767484
    3       18.363174
    4       18.363344
    5       22.689244
    6       22.702447
 
  0.3333333E+00  0.0000000E+00  0.0000000E+00  0.8638376E-03
    1       -1.221392
    2        8.015053
    3       18.238110
    4       18.238260
    5       22.002701
    6       22.003263
 
  0.3809524E+00  0.0000000E+00  0.0000000E+00  0.8638376E-03
    1       -0.267058
    2        6.365480
    3       18.182090
    4       18.182229
    5       21.420920
    6       21.421479
 
  0.4285714E+00  0.0000000E+00  0.0000000E+00  0.8638376E-03
    1        0.801267
    2        4.830759
    3       18.175900
    4       18.176023
    5       20.993511
    6       20.994076
 
  0.4761905E+00  0.0000000E+00  0.0000000E+00  0.8638376E-03
    1        1.941475
    2        3.457352
    3       18.186943
    4       18.187058
    5       20.763957
    6       20.764528
 
  0.4761905E-01  0.4761905E-01  0.0000000E+00  0.6478782E-03
    1       -4.291534
    2       19.689930
    3       19.690047
    4       20.485680
    5       21.292738
    6       22.932930
 
  0.9523810E-01  0.4761905E-01  0.0000000E+00  0.2591513E-02
    1       -4.140101
    2       18.200121
    3       19.068625
    4       20.262468
    5       21.438547
    6       23.535459
 
  0.1428571E+00  0.4761905E-01  0.0000000E+00  0.2591513E-02
    1       -3.859051
    2       16.248054
    3       18.533476
    4       19.808595
    5       22.101959
    6       23.794071
 
  0.1904762E+00  0.4761905E-01  0.0000000E+00  0.2591513E-02
    1       -3.449171
    2       14.251482
    3       18.098048
    4       19.373139
    5       22.503097
    6       23.771005
 
  0.2380952E+00  0.4761905E-01  0.0000000E+00  0.2591513E-02
    1       -2.911191
    2       12.302706
    3       17.767377
    4       19.004493
    5       22.320431
    6       23.525167
 
  0.2857143E+00  0.4761905E-01  0.0000000E+00  0.2591513E-02
    1       -2.246363
    2       10.425907
    3       17.541331
    4       18.701349
    5       21.727461
    6       23.375761
 
  0.3333333E+00  0.4761905E-01  0.0000000E+00  0.2591513E-02
    1       -1.455906
    2        8.640503
    3       17.421855
    4       18.445559
    5       21.115133
    6       23.143426
 
  0.3809524E+00  0.4761905E-01  0.0000000E+00  0.2591513E-02
    1       -0.541639
    2        6.956645
    3       17.403202
    4       18.205443
    5       20.653174
    6       22.457296
 
  0.4285714E+00  0.4761905E-01  0.0000000E+00  0.2591513E-02
    1        0.489827
    2        5.382689
    3       17.481131
    4       17.946971
    5       20.407132
    6       21.884291
 
  0.4761905E+00  0.4761905E-01  0.0000000E+00  0.2591513E-02
    1        1.619936
    2        3.941773
    3       17.645729
    4       17.666431
    5       20.385190
    6       21.435382
 
 -0.4761905E+00  0.4761905E-01  0.0000000E+00  0.2591513E-02
    1        2.311036
    2        3.173043
    3       17.400338
    4       17.883490
    5       20.589547
    6       21.145758
 
 -0.4285714E+00  0.4761905E-01  0.0000000E+00  0.2591513E-02
    1        1.235784
    2        4.403571
    3       17.183420
    4       18.161017
    5       20.950860
    6       21.009463
 
 -0.3809524E+00  0.4761905E-01  0.0000000E+00  0.2591513E-02
    1        0.133511
    2        5.894308
    3       17.045404
    4       18.452751
    5       21.086035
    6       21.465419
 
 -0.3333333E+00  0.4761905E-01  0.0000000E+00  0.2591513E-02
    1       -0.860039
    2        7.505976
    3       16.994918
    4       18.733318
    5       21.386571
    6       22.104751
 
 -0.2857143E+00  0.4761905E-01  0.0000000E+00  0.2591513E-02
    1       -1.733086
    2        9.224867
    3       17.042940
    4       19.007324
    5       21.882546
    6       22.830536
 
 -0.2380952E+00  0.4761905E-01  0.0000000E+00  0.2591513E-02
    1       -2.482004
    2       11.041560
    3       17.196260
    4       19.303153
    5       22.508214
    6       23.162579
 
 -0.1904762E+00  0.4761905E-01  0.0000000E+00  0.2591513E-02
    1       -3.104684
    2       12.944424
    3       17.455680
    4       19.645145
    5       23.079147
    6       23.205771
 
 -0.1428571E+00  0.4761905E-01  0.0000000E+00  0.2591513E-02
    1       -3.600081
    2       14.912854
    3       17.820044
    4       20.045841
    5       23.090199
    6       23.218140
 
 -0.9523810E-01  0.4761905E-01  0.0000000E+00  0.2591513E-02
    1       -3.967087
    2       16.911611
    3       18.287068
    4       20.480097
    5       22.492701
    6       23.100393
 
 -0.4761905E-01  0.4761905E-01  0.0000000E+00  0.1295756E-02
    1       -4.205003
    2       18.800670
    3       18.878778
    4       20.740107
    5       21.964660
    6       22.745837
 
  0.9523810E-01  0.9523810E-01  0.0000000E+00  0.6478782E-03
    1       -4.031902
    2       18.404397
    3       18.404501
    4       19.904079
    5       20.203861
    6       24.542006
 
  0.1428571E+00  0.9523810E-01  0.0000000E+00  0.2591513E-02
    1       -3.794200
    2       16.968333
    3       17.832003
    4       19.526824
    5       20.373914
    6       24.395915
 
  0.1904762E+00  0.9523810E-01  0.0000000E+00  0.2591513E-02
    1       -3.427559
    2       15.035522
    3       17.360755
    4       19.052125
    5       20.962143
    6       23.556192
 
  0.2380952E+00  0.9523810E-01  0.0000000E+00  0.2591513E-02
    1       -2.932496
    2       13.088027
    3       16.998965
    4       18.615991
    5       20.991353
    6       23.550237
 
  0.2857143E+00  0.9523810E-01  0.0000000E+00  0.2591513E-02
    1       -2.310276
    2       11.193379
    3       16.746025
    4       18.200714
    5       20.470896
    6       24.078649
 
  0.3333333E+00  0.9523810E-01  0.0000000E+00  0.2591513E-02
    1       -1.561880
    2        9.381799
    3       16.602903
    4       17.775009
    5       19.959539
    6       24.429153
 
  0.3809524E+00  0.9523810E-01  0.0000000E+00  0.2591513E-02
    1       -0.689192
    2        7.666439
    3       16.568107
    4       17.311768
    5       19.632408
    6       23.798242
 
  0.4285714E+00  0.9523810E-01  0.0000000E+00  0.2591513E-02
    1        0.303266
    2        6.057010
    3       16.640363
    4       16.828616
    5       19.535031
    6       23.176339
 
  0.4761905E+00  0.9523810E-01  0.0000000E+00  0.2591513E-02
    1        1.405099
    2        4.567653
    3       16.365871
    4       16.812562
    5       19.624127
    6       22.626076
 
 -0.4761905E+00  0.9523810E-01  0.0000000E+00  0.2591513E-02
    1        2.481141
    2        3.336215
    3       15.964882
    4       17.088527
    5       19.884517
    6       22.215587
 
 -0.4285714E+00  0.9523810E-01  0.0000000E+00  0.2591513E-02
    1        1.788797
    2        4.106076
    3       15.649144
    4       17.456444
    5       20.293988
    6       21.934319
 
 -0.3809524E+00  0.9523810E-01  0.0000000E+00  0.2591513E-02
    1        0.659503
    2        5.545693
    3       15.430302
    4       17.907562
    5       20.835925
    6       21.801645
 
 -0.3333333E+00  0.9523810E-01  0.0000000E+00  0.2591513E-02
    1       -0.371486
    2        7.117225
    3       15.316344
    4       18.413850
    5       21.479561
    6       21.811077
 
 -0.2857143E+00  0.9523810E-01  0.0000000E+00  0.2591513E-02
    1       -1.284722
    2        8.797633
    3       15.309987
    4       18.951158
    5       21.990995
    6       22.227314
 
 -0.2380952E+00  0.9523810E-01  0.0000000E+00  0.2591513E-02
    1       -2.074924
    2       10.577925
    3       15.417318
    4       19.493685
    5       22.343593
    6       23.073185
 
 -0.1904762E+00  0.9523810E-01  0.0000000E+00  0.2591513E-02
    1       -2.739261
    2       12.444254
    3       15.641871
    4       20.009543
    5       22.777838
    6       23.896033
 
 -0.1428571E+00  0.9523810E-01  0.0000000E+00  0.2591513E-02
    1       -3.276788
    2       14.371721
    3       15.979908
    4       20.474164
    5       22.891958
    6       23.796365
 
 -0.9523810E-01  0.9523810E-01  0.0000000E+00  0.1295756E-02
    1       -3.686375
    2       16.204858
    3       16.555978
    4       20.754602
    5       22.467090
    6       23.518462
 
  0.1428571E+00  0.1428571E+00  0.0000000E+00  0.6478782E-03
    1       -3.599935
    2       17.221661
    3       17.221758
    4       19.019140
    5       19.022441
    6       23.089266
 
  0.1904762E+00  0.1428571E+00  0.0000000E+00  0.2591513E-02
    1       -3.276554
    2       15.839574
    3       16.716298
    4       18.479990
    5       19.229272
    6       22.104466
 
  0.2380952E+00  0.1428571E+00  0.0000000E+00  0.2591513E-02
    1       -2.824791
    2       13.954309
    3       16.319100
    4       17.932327
    5       19.536136
    6       21.822053
 
  0.2857143E+00  0.1428571E+00  0.0000000E+00  0.2591513E-02
    1       -2.245585
    2       12.063261
    3       16.031828
    4       17.353925
    5       19.250623
    6       22.514516
 
  0.3333333E+00  0.1428571E+00  0.0000000E+00  0.2591513E-02
    1       -1.539786
    2       10.233163
    3       15.856483
    4       16.722758
    5       18.889176
    6       23.624601
 
  0.3809524E+00  0.1428571E+00  0.0000000E+00  0.2591513E-02
    1       -0.709150
    2        8.491288
    3       15.787869
    4       16.063877
    5       18.676467
    6       24.713932
 
  0.4285714E+00  0.1428571E+00  0.0000000E+00  0.2591513E-02
    1        0.242156
    2        6.849640
    3       15.428488
    4       15.833655
    5       18.639849
    6       24.616881
 
  0.4761905E+00  0.1428571E+00  0.0000000E+00  0.2591513E-02
    1        1.309181
    2        5.321225
    3       14.858697
    4       15.989159
    5       18.766816
    6       24.055824
 
 -0.4761905E+00  0.1428571E+00  0.0000000E+00  0.2591513E-02
    1        2.448897
    2        3.949555
    3       14.375589
    4       16.251869
    5       19.037003
    6       23.597142
 
 -0.4285714E+00  0.1428571E+00  0.0000000E+00  0.2591513E-02
    1        2.448423
    2        3.949279
    3       13.991685
    4       16.616988
    5       19.434423
    6       23.227677
 
 -0.3809524E+00  0.1428571E+00  0.0000000E+00  0.2591513E-02
    1        1.308696
    2        5.320437
    3       13.715868
    4       17.082225
    5       19.955420
    6       22.996772
 
 -0.3333333E+00  0.1428571E+00  0.0000000E+00  0.2591513E-02
    1        0.242301
    2        6.848075
    3       13.552464
    4       17.638076
    5       20.589761
    6       22.891604
 
 -0.2857143E+00  0.1428571E+00  0.0000000E+00  0.2591513E-02
    1       -0.709783
    2        8.486748
    3       13.503886
    4       18.270512
    5       21.331673
    6       22.919805
 
 -0.2380952E+00  0.1428571E+00  0.0000000E+00  0.2591513E-02
    1       -1.540161
    2       10.223613
    3       13.574533
    4       18.959058
    5       22.183165
    6       23.097545
 
 -0.1904762E+00  0.1428571E+00  0.0000000E+00  0.2591513E-02
    1       -2.245920
    2       12.032813
    3       13.777583
    4       19.655644
    5       23.093174
    6       23.369992
 
 -0.1428571E+00  0.1428571E+00  0.0000000E+00  0.1295756E-02
    1       -2.825124
    2       13.711318
    3       14.294695
    4       20.252580
    5       23.300158
    6       23.977085
 
  0.1904762E+00  0.1904762E+00  0.0000000E+00  0.6478782E-03
    1       -2.996608
    2       16.174410
    3       16.174501
    4       17.803696
    5       17.905095
    6       20.945848
 
  0.2380952E+00  0.1904762E+00  0.0000000E+00  0.2591513E-02
    1       -2.588286
    2       14.835557
    3       15.740722
    4       17.106905
    5       18.035333
    6       20.321671
 
  0.2857143E+00  0.1904762E+00  0.0000000E+00  0.2591513E-02
    1       -2.051982
    2       13.011597
    3       15.418140
    4       16.331692
    5       18.153151
    6       20.653517
 
  0.3333333E+00  0.1904762E+00  0.0000000E+00  0.2591513E-02
    1       -1.389669
    2       11.184632
    3       15.202927
    4       15.516503
    5       17.973497
    6       21.697430
 
  0.3809524E+00  0.1904762E+00  0.0000000E+00  0.2591513E-02
    1       -0.601998
    2        9.425295
    3       14.718816
    4       15.104208
    5       17.846425
    6       23.017227
 
  0.4285714E+00  0.1904762E+00  0.0000000E+00  0.2591513E-02
    1        0.308085
    2        7.757803
    3       13.984605
    4       15.117138
    5       17.838449
    6       24.400975
 
  0.4761905E+00  0.1904762E+00  0.0000000E+00  0.2591513E-02
    1        1.336052
    2        6.195440
    3       13.335732
    4       15.241422
    5       17.956484
    6       25.633801
 
 -0.4761905E+00  0.1904762E+00  0.0000000E+00  0.2591513E-02
    1        2.463343
    2        4.760986
    3       12.788286
    4       15.476123
    5       18.207753
    6       25.109350
 
 -0.4285714E+00  0.1904762E+00  0.0000000E+00  0.2591513E-02
    1        3.159852
    2        3.986520
    3       12.349019
    4       15.819198
    5       18.583785
    6       24.715986
 
 -0.3809524E+00  0.1904762E+00  0.0000000E+00  0.2591513E-02
    1        2.078952
    2        5.219788
    3       12.024025
    4       16.267960
    5       19.081578
    6       24.433756
 
 -0.3333333E+00  0.1904762E+00  0.0000000E+00  0.2591513E-02
    1        0.979792
    2        6.698375
    3       11.817156
    4       16.816188
    5       19.693196
    6       24.247356
 
 -0.2857143E+00  0.1904762E+00  0.0000000E+00  0.2591513E-02
    1       -0.009643
    2        8.289344
    3       11.733377
    4       17.458143
    5       20.419670
    6       24.201787
 
 -0.2380952E+00  0.1904762E+00  0.0000000E+00  0.2591513E-02
    1       -0.879022
    2        9.959154
    3       11.790801
    4       18.176099
    5       21.241720
    6       24.280935
 
 -0.1904762E+00  0.1904762E+00  0.0000000E+00  0.1295756E-02
    1       -1.625291
    2       11.478963
    3       12.206714
    4       18.938464
    5       22.141325
    6       24.500105
 
  0.2380952E+00  0.2380952E+00  0.0000000E+00  0.6478782E-03
    1       -2.223465
    2       15.270121
    3       15.270207
    4       16.105952
    5       16.918047
    6       19.357827
 
  0.2857143E+00  0.2380952E+00  0.0000000E+00  0.2591513E-02
    1       -1.730398
    2       13.964366
    3       14.907260
    4       15.221267
    5       17.038554
    6       19.135847
 
  0.3333333E+00  0.2380952E+00  0.0000000E+00  0.2591513E-02
    1       -1.111506
    2       12.206761
    3       14.288023
    4       14.659466
    5       17.166320
    6       19.814394
 
  0.3809524E+00  0.2380952E+00  0.0000000E+00  0.2591513E-02
    1       -0.367088
    2       10.455184
    3       13.393701
    4       14.524410
    5       17.124650
    6       21.036718
 
  0.4285714E+00  0.2380952E+00  0.0000000E+00  0.2591513E-02
    1        0.500537
    2        8.771582
    3       12.580261
    4       14.501924
    5       17.127593
    6       22.476631
 
  0.4761905E+00  0.2380952E+00  0.0000000E+00  0.2591513E-02
    1        1.486956
    2        7.183130
    3       11.867314
    4       14.591905
    5       17.237145
    6       24.032062
 
 -0.4761905E+00  0.2380952E+00  0.0000000E+00  0.2591513E-02
    1        2.583179
    2        5.707395
    3       11.263187
    4       14.793510
    5       17.460504
    6       25.586061
 
 -0.4285714E+00  0.2380952E+00  0.0000000E+00  0.2591513E-02
    1        3.666514
    2        4.470135
    3       10.774135
    4       15.105766
    5       17.808064
    6       26.306184
 
 -0.3809524E+00  0.2380952E+00  0.0000000E+00  0.2591513E-02
    1        2.965169
    2        5.244020
    3       10.404285
    4       15.526995
    5       18.276501
    6       25.981674
 
 -0.3333333E+00  0.2380952E+00  0.0000000E+00  0.2591513E-02
    1        1.839291
    2        6.664597
    3       10.160629
    4       16.053872
    5       18.862392
    6       25.764254
 
 -0.2857143E+00  0.2380952E+00  0.0000000E+00  0.2591513E-02
    1        0.813853
    2        8.182507
    3       10.063997
    4       16.680695
    5       19.558294
    6       25.650795
 
 -0.2380952E+00  0.2380952E+00  0.0000000E+00  0.1295756E-02
    1       -0.093904
    2        9.542481
    3       10.349799
    4       17.394550
    5       20.358499
    6       25.479351
 
  0.2857143E+00  0.2857143E+00  0.0000000E+00  0.6478782E-03
    1       -1.281656
    2       14.044150
    3       14.510283
    4       14.510387
    5       16.060909
    6       18.314005
 
  0.3333333E+00  0.2857143E+00  0.0000000E+00  0.2591513E-02
    1       -0.706475
    2       12.896313
    3       13.440071
    4       14.225335
    5       16.263869
    6       18.311349
 
  0.3809524E+00  0.2857143E+00  0.0000000E+00  0.2591513E-02
    1       -0.006245
    2       11.470783
    3       12.221725
    4       14.053216
    5       16.457008
    6       19.176761
 
  0.4285714E+00  0.2857143E+00  0.0000000E+00  0.2591513E-02
    1        0.818443
    2        9.853553
    3       11.286087
    4       13.994441
    5       16.510618
    6       20.521106
 
  0.4761905E+00  0.2857143E+00  0.0000000E+00  0.2591513E-02
    1        1.762316
    2        8.264745
    3       10.497922
    4       14.048068
    5       16.612104
    6       22.063699
 
 -0.4761905E+00  0.2857143E+00  0.0000000E+00  0.2591513E-02
    1        2.820012
    2        6.765434
    3        9.835327
    4       14.214819
    5       16.812349
    6       23.733389
 
 -0.4285714E+00  0.2857143E+00  0.0000000E+00  0.2591513E-02
    1        3.956247
    2        5.403772
    3        9.297159
    4       14.493539
    5       17.132582
    6       25.457451
 
 -0.3809524E+00  0.2857143E+00  0.0000000E+00  0.2591513E-02
    1        3.956030
    2        5.395748
    3        8.887275
    4       14.882731
    5       17.571228
    6       27.118011
 
 -0.3333333E+00  0.2857143E+00  0.0000000E+00  0.2591513E-02
    1        2.817204
    2        6.721737
    3        8.628691
    4       15.380395
    5       18.122803
    6       27.342895
 
 -0.2857143E+00  0.2857143E+00  0.0000000E+00  0.1295756E-02
    1        1.757807
    2        7.919152
    3        8.764583
    4       15.981841
    5       18.787103
    6       26.913371
 
  0.3333333E+00  0.3333333E+00  0.0000000E+00  0.6478782E-03
    1       -0.175253
    2       11.886452
    3       13.903080
    4       13.903180
    5       15.383779
    6       17.583554
 
  0.3809524E+00  0.3333333E+00  0.0000000E+00  0.2591513E-02
    1        0.480934
    2       10.847977
    3       12.790156
    4       13.693665
    5       15.673137
    6       17.718184
 
  0.4285714E+00  0.3333333E+00  0.0000000E+00  0.2591513E-02
    1        1.261363
    2        9.889659
    3       11.211224
    4       13.597720
    5       15.939428
    6       18.705141
 
  0.4761905E+00  0.3333333E+00  0.0000000E+00  0.2591513E-02
    1        2.161262
    2        8.962928
    3        9.714332
    4       13.614801
    5       16.082468
    6       20.148449
 
 -0.4761905E+00  0.3333333E+00  0.0000000E+00  0.2591513E-02
    1        3.176162
    2        7.811090
    3        8.635165
    4       13.744931
    5       16.273346
    6       21.782733
 
 -0.4285714E+00  0.3333333E+00  0.0000000E+00  0.2591513E-02
    1        4.289164
    2        6.478259
    3        7.974452
    4       13.988030
    5       16.562015
    6       23.536804
 
 -0.3809524E+00  0.3333333E+00  0.0000000E+00  0.2591513E-02
    1        5.003928
    2        5.673764
    3        7.527297
    4       14.343178
    5       16.968697
    6       25.374752
 
 -0.3333333E+00  0.3333333E+00  0.0000000E+00  0.1295756E-02
    1        3.904501
    2        6.616249
    3        7.492110
    4       14.808117
    5       17.488811
    6       27.147147
 
  0.3809524E+00  0.3809524E+00  0.0000000E+00  0.6478782E-03
    1        1.092633
    2        9.777383
    3       13.446834
    4       13.446932
    5       14.872730
    6       17.067748
 
  0.4285714E+00  0.3809524E+00  0.0000000E+00  0.2591513E-02
    1        1.828274
    2        8.797943
    3       12.386217
    4       13.313668
    5       15.252991
    6       17.310068
 
  0.4761905E+00  0.3809524E+00  0.0000000E+00  0.2591513E-02
    1        2.682199
    2        7.926634
    3       10.854078
    4       13.293467
    5       15.599121
    6       18.393892
 
 -0.4761905E+00  0.3809524E+00  0.0000000E+00  0.2591513E-02
    1        3.648736
    2        7.168106
    3        9.341800
    4       13.386899
    5       15.825670
    6       19.920383
 
 -0.4285714E+00  0.3809524E+00  0.0000000E+00  0.2591513E-02
    1        4.706080
    2        6.520255
    3        7.942769
    4       13.593298
    5       16.106495
    6       21.645365
 
 -0.3809524E+00  0.3809524E+00  0.0000000E+00  0.1295756E-02
    1        5.636319
    2        5.967996
    3        6.910561
    4       13.912280
    5       16.478790
    6       23.475047
 
  0.4285714E+00  0.4285714E+00  0.0000000E+00  0.6478782E-03
    1        2.516407
    2        7.778093
    3       13.142524
    4       13.142620
    5       14.532646
    6       16.736219
 
  0.4761905E+00  0.4285714E+00  0.0000000E+00  0.2591513E-02
    1        3.320195
    2        6.872137
    3       12.146235
    4       13.084949
    5       15.001312
    6       17.065809
 
 -0.4761905E+00  0.4285714E+00  0.0000000E+00  0.2591513E-02
    1        4.220886
    2        6.103894
    3       10.685936
    4       13.141123
    5       15.431728
    6       18.240832
 
 -0.4285714E+00  0.4285714E+00  0.0000000E+00  0.1295756E-02
    1        4.982447
    2        5.702075
    3        9.247825
    4       13.310859
    5       15.743736
    6       19.848057
 
  0.4761905E+00  0.4761905E+00  0.0000000E+00  0.6478782E-03
    1        4.057200
    2        5.946110
    3       12.989914
    4       12.990010
    5       14.361192
    6       16.573170
 
 -0.4761905E+00  0.4761905E+00  0.0000000E+00  0.1295756E-02
    1        4.655559
    2        5.391892
    3       12.066544
    4       13.008658
    5       14.917223
    6       16.987788
 
  0.1428571E+00  0.9523810E-01  0.4761905E-01  0.2591513E-02
    1       -3.945506
    2       17.514481
    3       17.696060
    4       20.413927
    5       21.192109
    6       24.099212
 
  0.1904762E+00  0.9523810E-01  0.4761905E-01  0.5183026E-02
    1       -3.621632
    2       15.655154
    3       17.120186
    4       20.124443
    5       21.689611
    6       24.358698
 
  0.2380952E+00  0.9523810E-01  0.4761905E-01  0.5183026E-02
    1       -3.169158
    2       13.685559
    3       16.717891
    4       19.688137
    5       21.992311
    6       24.021412
 
  0.2857143E+00  0.9523810E-01  0.4761905E-01  0.5183026E-02
    1       -2.589064
    2       11.766332
    3       16.425002
    4       19.256770
    5       21.649649
    6       23.928474
 
  0.3333333E+00  0.9523810E-01  0.4761905E-01  0.5183026E-02
    1       -1.882416
    2        9.923237
    3       16.241393
    4       18.824334
    5       21.133330
    6       23.624347
 
  0.3809524E+00  0.9523810E-01  0.4761905E-01  0.5183026E-02
    1       -1.050747
    2        8.173468
    3       16.162285
    4       18.367652
    5       20.747700
    6       22.978776
 
  0.4285714E+00  0.9523810E-01  0.4761905E-01  0.5183026E-02
    1       -0.097184
    2        6.527003
    3       16.190918
    4       17.896871
    5       20.556941
    6       22.332938
 
  0.4761905E+00  0.9523810E-01  0.4761905E-01  0.5183026E-02
    1        0.970800
    2        4.994375
    3       16.310663
    4       17.454409
    5       20.529881
    6       21.807917
 
 -0.4761905E+00  0.9523810E-01  0.4761905E-01  0.5183026E-02
    1        2.110657
    2        3.621532
    3       16.473190
    4       17.121819
    5       20.594761
    6       21.466545
 
  0.1904762E+00  0.1428571E+00  0.4761905E-01  0.2591513E-02
    1       -3.513693
    2       16.304164
    3       16.555739
    4       19.566941
    5       20.073146
    6       23.308834
 
  0.2380952E+00  0.1428571E+00  0.4761905E-01  0.5183026E-02
    1       -3.104449
    2       14.502103
    3       16.018100
    4       19.136834
    5       20.500152
    6       22.681220
 
  0.2857143E+00  0.1428571E+00  0.4761905E-01  0.5183026E-02
    1       -2.567327
    2       12.590743
    3       15.684518
    4       18.568593
    5       20.443610
    6       23.022525
 
  0.3333333E+00  0.1428571E+00  0.4761905E-01  0.5183026E-02
    1       -1.903278
    2       10.731581
    3       15.458271
    4       17.944084
    5       20.094098
    6       23.865459
 
  0.3809524E+00  0.1428571E+00  0.4761905E-01  0.5183026E-02
    1       -1.113686
    2        8.955741
    3       15.344174
    4       17.291264
    5       19.842186
    6       24.114492
 
  0.4285714E+00  0.1428571E+00  0.4761905E-01  0.5183026E-02
    1       -0.201568
    2        7.277855
    3       15.327945
    4       16.668713
    5       19.753539
    6       23.580270
 
  0.4761905E+00  0.1428571E+00  0.4761905E-01  0.5183026E-02
    1        0.828876
    2        5.708741
    3       15.367507
    4       16.160380
    5       19.814578
    6       23.015446
 
 -0.4761905E+00  0.1428571E+00  0.4761905E-01  0.5183026E-02
    1        1.957956
    2        4.270320
    3       15.268626
    4       15.979984
    5       20.011603
    6       22.530432
 
 -0.4285714E+00  0.1428571E+00  0.4761905E-01  0.5183026E-02
    1        2.651222
    2        3.499314
    3       14.969917
    4       16.203455
    5       20.312614
    6       22.171392
 
 -0.3809524E+00  0.1428571E+00  0.4761905E-01  0.5183026E-02
    1        1.573737
    2        4.731363
    3       14.694637
    4       16.610860
    5       20.690290
    6       21.961103
 
 -0.3333333E+00  0.1428571E+00  0.4761905E-01  0.5183026E-02
    1        0.472836
    2        6.218489
    3       14.509197
    4       17.131517
    5       21.057485
    6       22.005296
 
 -0.2857143E+00  0.1428571E+00  0.4761905E-01  0.5183026E-02
    1       -0.519443
    2        7.824366
    3       14.428338
    4       17.738449
    5       21.307335
    6       22.392147
 
 -0.2380952E+00  0.1428571E+00  0.4761905E-01  0.5183026E-02
    1       -1.390886
    2        9.535574
    3       14.460429
    4       18.406948
    5       21.531056
    6       23.024175
 
 -0.1904762E+00  0.1428571E+00  0.4761905E-01  0.5183026E-02
    1       -2.138676
    2       11.337597
    3       14.606943
    4       19.094652
    5       21.822457
    6       23.609737
 
 -0.1428571E+00  0.1428571E+00  0.4761905E-01  0.5183026E-02
    1       -2.760638
    2       13.207737
    3       14.877150
    4       19.745901
    5       22.057168
    6       23.571576
 
 -0.9523810E-01  0.1428571E+00  0.4761905E-01  0.2591513E-02
    1       -3.255212
    2       14.961922
    3       15.424505
    4       20.224350
    5       21.797564
    6       23.824377
 
  0.2380952E+00  0.1904762E+00  0.4761905E-01  0.2591513E-02
    1       -2.910671
    2       15.223484
    3       15.515394
    4       18.256254
    5       19.002163
    6       21.293797
 
  0.2857143E+00  0.1904762E+00  0.4761905E-01  0.5183026E-02
    1       -2.416835
    2       13.487479
    3       15.028360
    4       17.583676
    5       19.279948
    6       21.257674
 
  0.3333333E+00  0.1904762E+00  0.4761905E-01  0.5183026E-02
    1       -1.795638
    2       11.638095
    3       14.759915
    4       16.788790
    5       19.176099
    6       22.123693
 
  0.3809524E+00  0.1904762E+00  0.4761905E-01  0.5183026E-02
    1       -1.049166
    2        9.847511
    3       14.594027
    4       16.004792
    5       19.019120
    6       23.320463
 
  0.4285714E+00  0.1904762E+00  0.4761905E-01  0.5183026E-02
    1       -0.178810
    2        8.143662
    3       14.491371
    4       15.324207
    5       18.966395
    6       24.407461
 
  0.4761905E+00  0.1904762E+00  0.4761905E-01  0.5183026E-02
    1        0.811385
    2        6.542146
    3       14.260572
    4       14.968695
    5       19.039276
    6       24.383701
 
 -0.4761905E+00  0.1904762E+00  0.4761905E-01  0.5183026E-02
    1        1.911432
    2        5.058551
    3       13.809527
    4       15.045150