PROCAR lm decomposed
# of k-points:  286         # of bands:   6         # of ions:   1

 k-point    1 :    0.00000000 0.00000000 0.00000000     weight = 0.00010798

band   1 # energy   -4.37849117 # occ.  2.00000000
 
ion      s     py     pz     px    dxy    dyz    dz2    dxz    dx2    tot
  1  0.384  0.000  0.000  0.000  0.000  0.000  0.000  0.000  0.000  0.384
 
band   2 # energy   20.69438614 # occ.  0.00000000
 
ion      s     py     pz     px    dxy    dyz    dz2    dxz    dx2    tot
  1  0.000  0.225  0.229  0.224  0.000  0.000  0.000  0.000  0.000  0.677
 
band   3 # energy   20.69456349 # occ.  0.00000000
 
ion      s     py     pz     px    dxy    dyz    dz2    dxz    dx2    tot
  1  0.000  0.379  0.008  0.290  0.000  0.000  0.000  0.000  0.000  0.678
 
band   4 # energy   20.69456574 # occ.  0.00000000
 
ion      s     py     pz     px    dxy    dyz    dz2    dxz    dx2    tot
  1  0.000  0.074  0.440  0.163  0.000  0.000  0.000  0.000  0.000  0.678
 
band   5 # energy   21.77091350 # occ.  0.00000000
 
ion      s     py     pz     px    dxy    dyz    dz2    dxz    dx2    tot
  1  0.000  0.000  0.000  0.000  0.000  0.000  0.000  0.000  0.000  0.000
 
band   6 # energy   21.77101401 # occ.  0.00000000
 
ion      s     py     pz     px    dxy    dyz    dz2    dxz    dx2    tot
  1  0.000  0.000  0.000  0.000  0.000  0.000  0.000  0.000  0.000  0.000
 

 k-point    2 :    0.04761905 0.00000000 0.00000000     weight = 0.00086384

band   1 # energy   -4.31327294 # occ.  2.00000000
 
ion      s     py     pz     px    dxy    dyz    dz2    dxz    dx2    tot
  1  0.383  0.001  0.001  0.001  0.000  0.000  0.000  0.000  0.000  0.385
 
band   2 # energy   19.44887549 # occ.  0.00000000
 
ion      s     py     pz     px    dxy    dyz    dz2    dxz    dx2    tot
  1  0.009  0.145  0.145  0.145  0.000  0.000  0.000  0.000  0.000  0.443
 
band   3 # energy   20.34180536 # occ.  0.00000000
 
ion      s     py     pz     px    dxy    dyz    dz2    dxz    dx2    tot
  1  0.000  0.091  0.365  0.091  0.000  0.000  0.000  0.000  0.000  0.548
 
band   4 # energy   20.34197131 # occ.  0.00000000
 
ion      s     py     pz     px    dxy    dyz    dz2    dxz    dx2    tot
  1  0.000  0.274  0.000  0.274  0.000  0.000  0.000  0.000  0.000  0.548
 
band   5 # energy   22.23891984 # occ.  0.00000000
 
ion      s     py     pz     px    dxy    dyz    dz2    dxz    dx2    tot
  1  0.000  0.022  0.089  0.022  0.000  0.000  0.000  0.000  0.000  0.134
 
band   6 # energy   22.23903291 # occ.  0.00000000
 
ion      s     py     pz     px    dxy    dyz    dz2    dxz    dx2    tot
  1  0.000  0.067  0.000  0.067  0.000  0.000  0.000  0.000  0.000  0.134
 

 k-point    3 :    0.09523810 0.00000000 0.00000000     weight = 0.00086384

band   1 # energy   -4.11850658 # occ.  2.00000000
 
ion      s     py     pz     px    dxy    dyz    dz2    dxz    dx2    tot
  1  0.379  0.002  0.002  0.002  0.000  0.000  0.000  0.000  0.000  0.385
 
band   2 # energy   17.54356638 # occ.  0.00000000
 
ion      s     py     pz     px    dxy    dyz    dz2    dxz    dx2    tot
  1  0.024  0.119  0.119  0.119  0.000  0.000  0.000  0.000  0.000  0.381
 
band   3 # energy   19.79416147 # occ.  0.00000000
 
ion      s     py     pz     px    dxy    dyz    dz2    dxz    dx2    tot
  1  0.000  0.081  0.323  0.081  0.000  0.000  0.000  0.000  0.000  0.485
 
band   4 # energy   19.79432824 # occ.  0.00000000
 
ion      s     py     pz     px    dxy    dyz    dz2    dxz    dx2    tot
  1  0.000  0.243  0.000  0.242  0.000  0.000  0.000  0.000  0.000  0.485
 
band   5 # energy   22.87714003 # occ.  0.00000000
 
ion      s     py     pz     px    dxy    dyz    dz2    dxz    dx2    tot
  1  0.031  0.079  0.080  0.078  0.000  0.000  0.000  0.000  0.000  0.268
 
band   6 # energy   22.99947409 # occ.  0.00000000
 
ion      s     py     pz     px    dxy    dyz    dz2    dxz    dx2    tot
  1  0.000  0.128  0.037  0.040  0.000  0.000  0.000  0.000  0.000  0.205
 

 k-point    4 :    0.14285714 0.00000000 0.00000000     weight = 0.00086384

band   1 # energy   -3.79434896 # occ.  2.00000000
 
ion      s     py     pz     px    dxy    dyz    dz2    dxz    dx2    tot
  1  0.371  0.005  0.005  0.005  0.000  0.000  0.000  0.000  0.000  0.386
 
band   2 # energy   15.54188289 # occ.  0.00000000
 
ion      s     py     pz     px    dxy    dyz    dz2    dxz    dx2    tot
  1  0.042  0.107  0.107  0.107  0.000  0.000  0.000  0.000  0.000  0.364
 
band   3 # energy   19.29825692 # occ.  0.00000000
 
ion      s     py     pz     px    dxy    dyz    dz2    dxz    dx2    tot
  1  0.000  0.079  0.313  0.078  0.000  0.000  0.000  0.000  0.000  0.470
 
band   4 # energy   19.29842609 # occ.  0.00000000
 
ion      s     py     pz     px    dxy    dyz    dz2    dxz    dx2    tot
  1  0.000  0.235  0.000  0.235  0.000  0.000  0.000  0.000  0.000  0.470
 
band   5 # energy   22.94784411 # occ.  0.00000000
 
ion      s     py     pz     px    dxy    dyz    dz2    dxz    dx2    tot
  1  0.065  0.065  0.065  0.065  0.000  0.000  0.000  0.000  0.000  0.261
 
band   6 # energy   23.69796017 # occ.  0.00000000
 
ion      s     py     pz     px    dxy    dyz    dz2    dxz    dx2    tot
  1  0.000  0.146  0.070  0.014  0.000  0.000  0.000  0.000  0.000  0.230
 

 k-point    5 :    0.19047619 0.00000000 0.00000000     weight = 0.00086384

band   1 # energy   -3.34153635 # occ.  2.00000000
 
ion      s     py     pz     px    dxy    dyz    dz2    dxz    dx2    tot
  1  0.362  0.008  0.008  0.008  0.000  0.000  0.000  0.000  0.000  0.387
 
band   2 # energy   13.54776382 # occ.  0.00000000
 
ion      s     py     pz     px    dxy    dyz    dz2    dxz    dx2    tot
  1  0.062  0.099  0.099  0.099  0.000  0.000  0.000  0.000  0.000  0.358
 
band   3 # energy   18.89105432 # occ.  0.00000000
 
ion      s     py     pz     px    dxy    dyz    dz2    dxz    dx2    tot
  1  0.000  0.079  0.315  0.079  0.000  0.000  0.000  0.000  0.000  0.473
 
band   4 # energy   18.89122663 # occ.  0.00000000
 
ion      s     py     pz     px    dxy    dyz    dz2    dxz    dx2    tot
  1  0.000  0.237  0.000  0.237  0.000  0.000  0.000  0.000  0.000  0.473
 
band   5 # energy   22.88322608 # occ.  0.00000000
 
ion      s     py     pz     px    dxy    dyz    dz2    dxz    dx2    tot
  1  0.102  0.050  0.050  0.050  0.000  0.000  0.000  0.000  0.000  0.251
 
band   6 # energy   23.88291687 # occ.  0.00000000
 
ion      s     py     pz     px    dxy    dyz    dz2    dxz    dx2    tot
  1  0.000  0.049  0.134  0.021  0.000  0.000  0.000  0.000  0.000  0.204
 

 k-point    6 :    0.23809524 0.00000000 0.00000000     weight = 0.00086384

band   1 # energy   -2.76097959 # occ.  2.00000000
 
ion      s     py     pz     px    dxy    dyz    dz2    dxz    dx2    tot
  1  0.349  0.013  0.013  0.013  0.000  0.000  0.000  0.000  0.000  0.388
 
band   2 # energy   11.61616909 # occ. -0.00563388
 
ion      s     py     pz     px    dxy    dyz    dz2    dxz    dx2    tot
  1  0.081  0.093  0.093  0.093  0.000  0.000  0.000  0.000  0.000  0.359
 
band   3 # energy   18.57977440 # occ.  0.00000000
 
ion      s     py     pz     px    dxy    dyz    dz2    dxz    dx2    tot
  1  0.000  0.081  0.323  0.081  0.000  0.000  0.000  0.000  0.000  0.485
 
band   4 # energy   18.57994746 # occ.  0.00000000
 
ion      s     py     pz     px    dxy    dyz    dz2    dxz    dx2    tot
  1  0.000  0.243  0.000  0.242  0.000  0.000  0.000  0.000  0.000  0.485
 
band   5 # energy   22.80116116 # occ.  0.00000000
 
ion      s     py     pz     px    dxy    dyz    dz2    dxz    dx2    tot
  1  0.136  0.035  0.035  0.035  0.000  0.000  0.000  0.000  0.000  0.242
 
band   6 # energy   23.39354547 # occ.  0.00000000
 
ion      s     py     pz     px    dxy    dyz    dz2    dxz    dx2    tot
  1  0.000  0.012  0.080  0.058  0.000  0.000  0.000  0.000  0.000  0.150
 

 k-point    7 :    0.28571429 0.00000000 0.00000000     weight = 0.00086384

band   1 # energy   -2.05396730 # occ.  2.00000000
 
ion      s     py     pz     px    dxy    dyz    dz2    dxz    dx2    tot
  1  0.336  0.018  0.018  0.018  0.000  0.000  0.000  0.000  0.000  0.389
 
band   2 # energy    9.76748428 # occ.  1.15493013
 
ion      s     py     pz     px    dxy    dyz    dz2    dxz    dx2    tot
  1  0.102  0.087  0.087  0.087  0.000  0.000  0.000  0.000  0.000  0.363
 
band   3 # energy   18.36317373 # occ.  0.00000000
 
ion      s     py     pz     px    dxy    dyz    dz2    dxz    dx2    tot
  1  0.000  0.084  0.336  0.084  0.000  0.000  0.000  0.000  0.000  0.504
 
band   4 # energy   18.36334418 # occ.  0.00000000
 
ion      s     py     pz     px    dxy    dyz    dz2    dxz    dx2    tot
  1  0.000  0.252  0.000  0.252  0.000  0.000  0.000  0.000  0.000  0.504
 
band   5 # energy   22.68924382 # occ.  0.00000000
 
ion      s     py     pz     px    dxy    dyz    dz2    dxz    dx2    tot
  1  0.000  0.055  0.058  0.003  0.000  0.000  0.000  0.000  0.000  0.116
 
band   6 # energy   22.70244729 # occ.  0.00000000
 
ion      s     py     pz     px    dxy    dyz    dz2    dxz    dx2    tot
  1  0.008  0.013  0.012  0.089  0.000  0.000  0.000  0.000  0.000  0.121
 

 k-point    8 :    0.33333333 0.00000000 0.00000000     weight = 0.00086384

band   1 # energy   -1.22139227 # occ.  2.00000000
 
ion      s     py     pz     px    dxy    dyz    dz2    dxz    dx2    tot
  1  0.322  0.024  0.024  0.024  0.000  0.000  0.000  0.000  0.000  0.393
 
band   2 # energy    8.01505322 # occ.  2.00000000
 
ion      s     py     pz     px    dxy    dyz    dz2    dxz    dx2    tot
  1  0.122  0.081  0.081  0.081  0.000  0.000  0.000  0.000  0.000  0.366
 
band   3 # energy   18.23811021 # occ.  0.00000000
 
ion      s     py     pz     px    dxy    dyz    dz2    dxz    dx2    tot
  1  0.000  0.088  0.353  0.088  0.000  0.000  0.000  0.000  0.000  0.530
 
band   4 # energy   18.23826046 # occ.  0.00000000
 
ion      s     py     pz     px    dxy    dyz    dz2    dxz    dx2    tot
  1  0.000  0.265  0.000  0.265  0.000  0.000  0.000  0.000  0.000  0.530
 
band   5 # energy   22.00270087 # occ.  0.00000000
 
ion      s     py     pz     px    dxy    dyz    dz2    dxz    dx2    tot
  1  0.000  0.014  0.056  0.014  0.000  0.000  0.000  0.000  0.000  0.084
 
band   6 # energy   22.00326276 # occ.  0.00000000
 
ion      s     py     pz     px    dxy    dyz    dz2    dxz    dx2    tot
  1  0.000  0.042  0.000  0.042  0.000  0.000  0.000  0.000  0.000  0.084
 

 k-point    9 :    0.38095238 0.00000000 0.00000000     weight = 0.00086384

band   1 # energy   -0.26705823 # occ.  2.00000000
 
ion      s     py     pz     px    dxy    dyz    dz2    dxz    dx2    tot
  1  0.309  0.029  0.029  0.029  0.000  0.000  0.000  0.000  0.000  0.396
 
band   2 # energy    6.36547974 # occ.  2.00000000
 
ion      s     py     pz     px    dxy    dyz    dz2    dxz    dx2    tot
  1  0.140  0.076  0.076  0.076  0.000  0.000  0.000  0.000  0.000  0.369
 
band   3 # energy   18.18208997 # occ.  0.00000000
 
ion      s     py     pz     px    dxy    dyz    dz2    dxz    dx2    tot
  1  0.000  0.093  0.374  0.093  0.000  0.000  0.000  0.000  0.000  0.560
 
band   4 # energy   18.18222884 # occ.  0.00000000
 
ion      s     py     pz     px    dxy    dyz    dz2    dxz    dx2    tot
  1  0.000  0.280  0.000  0.280  0.000  0.000  0.000  0.000  0.000  0.561
 
band   5 # energy   21.42091984 # occ.  0.00000000
 
ion      s     py     pz     px    dxy    dyz    dz2    dxz    dx2    tot
  1  0.000  0.009  0.037  0.009  0.000  0.000  0.000  0.000  0.000  0.055
 
band   6 # energy   21.42147895 # occ.  0.00000000
 
ion      s     py     pz     px    dxy    dyz    dz2    dxz    dx2    tot
  1  0.000  0.028  0.000  0.028  0.000  0.000  0.000  0.000  0.000  0.055
 

 k-point   10 :    0.42857143 0.00000000 0.00000000     weight = 0.00086384

band   1 # energy    0.80126746 # occ.  2.00000000
 
ion      s     py     pz     px    dxy    dyz    dz2    dxz    dx2    tot
  1  0.303  0.032  0.032  0.032  0.000  0.000  0.000  0.000  0.000  0.400
 
band   2 # energy    4.83075866 # occ.  2.00000000
 
ion      s     py     pz     px    dxy    dyz    dz2    dxz    dx2    tot
  1  0.149  0.073  0.073  0.073  0.000  0.000  0.000  0.000  0.000  0.368
 
band   3 # energy   18.17589952 # occ.  0.00000000
 
ion      s     py     pz     px    dxy    dyz    dz2    dxz    dx2    tot
  1  0.000  0.099  0.395  0.099  0.000  0.000  0.000  0.000  0.000  0.593
 
band   4 # energy   18.17602296 # occ.  0.00000000
 
ion      s     py     pz     px    dxy    dyz    dz2    dxz    dx2    tot
  1  0.000  0.297  0.000  0.296  0.000  0.000  0.000  0.000  0.000  0.593
 
band   5 # energy   20.99351097 # occ.  0.00000000
 
ion      s     py     pz     px    dxy    dyz    dz2    dxz    dx2    tot
  1  0.000  0.004  0.017  0.004  0.000  0.000  0.000  0.000  0.000  0.025
 
band   6 # energy   20.99407583 # occ.  0.00000000
 
ion      s     py     pz     px    dxy    dyz    dz2    dxz    dx2    tot
  1  0.000  0.013  0.000  0.013  0.000  0.000  0.000  0.000  0.000  0.025
 

 k-point   11 :    0.47619048 0.00000000 0.00000000     weight = 0.00086384

band   1 # energy    1.94147471 # occ.  2.00000000
 
ion      s     py     pz     px    dxy    dyz    dz2    dxz    dx2    tot
  1  0.349  0.024  0.024  0.024  0.000  0.000  0.000  0.000  0.000  0.420
 
band   2 # energy    3.45735178 # occ.  2.00000000
 
ion      s     py     pz     px    dxy    dyz    dz2    dxz    dx2    tot
  1  0.105  0.082  0.082  0.082  0.000  0.000  0.000  0.000  0.000  0.351
 
band   3 # energy   18.18694295 # occ.  0.00000000
 
ion      s     py     pz     px    dxy    dyz    dz2    dxz    dx2    tot
  1  0.000  0.103  0.411  0.103  0.000  0.000  0.000  0.000  0.000  0.616
 
band   4 # energy   18.18705760 # occ.  0.00000000
 
ion      s     py     pz     px    dxy    dyz    dz2    dxz    dx2    tot
  1  0.000  0.308  0.000  0.308  0.000  0.000  0.000  0.000  0.000  0.616
 
band   5 # energy   20.76395717 # occ.  0.00000000
 
ion      s     py     pz     px    dxy    dyz    dz2    dxz    dx2    tot
  1  0.000  0.001  0.002  0.001  0.000  0.000  0.000  0.000  0.000  0.003
 
band   6 # energy   20.76452752 # occ.  0.00000000
 
ion      s     py     pz     px    dxy    dyz    dz2    dxz    dx2    tot
  1  0.000  0.002  0.000  0.002  0.000  0.000  0.000  0.000  0.000  0.003
 

 k-point   12 :    0.04761905 0.04761905 0.00000000     weight = 0.00064788

band   1 # energy   -4.29153351 # occ.  2.00000000
 
ion      s     py     pz     px    dxy    dyz    dz2    dxz    dx2    tot
  1  0.383  0.002  0.000  0.000  0.000  0.000  0.000  0.000  0.000  0.385
 
band   2 # energy   19.68992955 # occ.  0.00000000
 
ion      s     py     pz     px    dxy    dyz    dz2    dxz    dx2    tot
  1  0.000  0.000  0.233  0.234  0.000  0.000  0.000  0.000  0.000  0.467
 
band   3 # energy   19.69004690 # occ.  0.00000000
 
ion      s     py     pz     px    dxy    dyz    dz2    dxz    dx2    tot
  1  0.000  0.000  0.234  0.233  0.000  0.000  0.000  0.000  0.000  0.467
 
band   4 # energy   20.48567974 # occ.  0.00000000
 
ion      s     py     pz     px    dxy    dyz    dz2    dxz    dx2    tot
  1  0.020  0.658  0.000  0.000  0.000  0.000  0.000  0.000  0.000  0.678
 
band   5 # energy   21.29273824 # occ.  0.00000000
 
ion      s     py     pz     px    dxy    dyz    dz2    dxz    dx2    tot
  1  0.000  0.000  0.000  0.000  0.000  0.000  0.000  0.000  0.000  0.000
 
band   6 # energy   22.93292955 # occ.  0.00000000
 
ion      s     py     pz     px    dxy    dyz    dz2    dxz    dx2    tot
  1  0.000  0.000  0.003  0.210  0.000  0.000  0.000  0.000  0.000  0.214
 

 k-point   13 :    0.09523810 0.04761905 0.00000000     weight = 0.00259151

band   1 # energy   -4.14010118 # occ.  2.00000000
 
ion      s     py     pz     px    dxy    dyz    dz2    dxz    dx2    tot
  1  0.379  0.005  0.001  0.001  0.000  0.000  0.000  0.000  0.000  0.385
 
band   2 # energy   18.20012068 # occ.  0.00000000
 
ion      s     py     pz     px    dxy    dyz    dz2    dxz    dx2    tot
  1  0.015  0.074  0.154  0.154  0.000  0.000  0.000  0.000  0.000  0.397
 
band   3 # energy   19.06862516 # occ.  0.00000000
 
ion      s     py     pz     px    dxy    dyz    dz2    dxz    dx2    tot
  1  0.000  0.000  0.222  0.221  0.000  0.000  0.000  0.000  0.000  0.443
 
band   4 # energy   20.26246773 # occ.  0.00000000
 
ion      s     py     pz     px    dxy    dyz    dz2    dxz    dx2    tot
  1  0.023  0.483  0.027  0.028  0.000  0.000  0.000  0.000  0.000  0.561
 
band   5 # energy   21.43854660 # occ.  0.00000000
 
ion      s     py     pz     px    dxy    dyz    dz2    dxz    dx2    tot
  1  0.001  0.062  0.050  0.050  0.000  0.000  0.000  0.000  0.000  0.162
 
band   6 # energy   23.53545943 # occ.  0.00000000
 
ion      s     py     pz     px    dxy    dyz    dz2    dxz    dx2    tot
  1  0.012  0.018  0.099  0.100  0.000  0.000  0.000  0.000  0.000  0.230
 

 k-point   14 :    0.14285714 0.04761905 0.00000000     weight = 0.00259151

band   1 # energy   -3.85905051 # occ.  2.00000000
 
ion      s     py     pz     px    dxy    dyz    dz2    dxz    dx2    tot
  1  0.373  0.009  0.002  0.002  0.000  0.000  0.000  0.000  0.000  0.386
 
band   2 # energy   16.24805358 # occ.  0.00000000
 
ion      s     py     pz     px    dxy    dyz    dz2    dxz    dx2    tot
  1  0.034  0.083  0.126  0.126  0.000  0.000  0.000  0.000  0.000  0.368
 
band   3 # energy   18.53347565 # occ.  0.00000000
 
ion      s     py     pz     px    dxy    dyz    dz2    dxz    dx2    tot
  1  0.000  0.000  0.219  0.219  0.000  0.000  0.000  0.000  0.000  0.439
 
band   4 # energy   19.80859512 # occ.  0.00000000
 
ion      s     py     pz     px    dxy    dyz    dz2    dxz    dx2    tot
  1  0.026  0.409  0.029  0.029  0.000  0.000  0.000  0.000  0.000  0.492
 
band   5 # energy   22.10195923 # occ.  0.00000000
 
ion      s     py     pz     px    dxy    dyz    dz2    dxz    dx2    tot
  1  0.000  0.093  0.091  0.091  0.000  0.000  0.000  0.000  0.000  0.275
 
band   6 # energy   23.79407097 # occ.  0.00000000
 
ion      s     py     pz     px    dxy    dyz    dz2    dxz    dx2    tot
  1  0.040  0.035  0.065  0.065  0.000  0.000  0.000  0.000  0.000  0.204
 

 k-point   15 :    0.19047619 0.04761905 0.00000000     weight = 0.00259151

band   1 # energy   -3.44917081 # occ.  2.00000000
 
ion      s     py     pz     px    dxy    dyz    dz2    dxz    dx2    tot
  1  0.364  0.013  0.005  0.005  0.000  0.000  0.000  0.000  0.000  0.387
 
band   2 # energy   14.25148218 # occ.  0.00000000
 
ion      s     py     pz     px    dxy    dyz    dz2    dxz    dx2    tot
  1  0.053  0.081  0.112  0.112  0.000  0.000  0.000  0.000  0.000  0.358
 
band   3 # energy   18.09804808 # occ.  0.00000000
 
ion      s     py     pz     px    dxy    dyz    dz2    dxz    dx2    tot
  1  0.000  0.000  0.221  0.221  0.000  0.000  0.000  0.000  0.000  0.442
 
band   4 # energy   19.37313940 # occ.  0.00000000
 
ion      s     py     pz     px    dxy    dyz    dz2    dxz    dx2    tot
  1  0.029  0.388  0.035  0.035  0.000  0.000  0.000  0.000  0.000  0.487
 
band   5 # energy   22.50309655 # occ.  0.00000000
 
ion      s     py     pz     px    dxy    dyz    dz2    dxz    dx2    tot
  1  0.005  0.090  0.095  0.095  0.000  0.000  0.000  0.000  0.000  0.286
 
band   6 # energy   23.77100491 # occ.  0.00000000
 
ion      s     py     pz     px    dxy    dyz    dz2    dxz    dx2    tot
  1  0.059  0.037  0.044  0.044  0.000  0.000  0.000  0.000  0.000  0.185
 

 k-point   16 :    0.23809524 0.04761905 0.00000000     weight = 0.00259151

band   1 # energy   -2.91119088 # occ.  2.00000000
 
ion      s     py     pz     px    dxy    dyz    dz2    dxz    dx2    tot
  1  0.353  0.019  0.008  0.008  0.000  0.000  0.000  0.000  0.000  0.388
 
band   2 # energy   12.30270577 # occ.  0.00000000
 
ion      s     py     pz     px    dxy    dyz    dz2    dxz    dx2    tot
  1  0.073  0.077  0.104  0.104  0.000  0.000  0.000  0.000  0.000  0.359
 
band   3 # energy   17.76737659 # occ.  0.00000000
 
ion      s     py     pz     px    dxy    dyz    dz2    dxz    dx2    tot
  1  0.000  0.000  0.225  0.225  0.000  0.000  0.000  0.000  0.000  0.450
 
band   4 # energy   19.00449325 # occ.  0.00000000
 
ion      s     py     pz     px    dxy    dyz    dz2    dxz    dx2    tot
  1  0.033  0.383  0.043  0.043  0.000  0.000  0.000  0.000  0.000  0.502
 
band   5 # energy   22.32043057 # occ.  0.00000000
 
ion      s     py     pz     px    dxy    dyz    dz2    dxz    dx2    tot
  1  0.006  0.081  0.050  0.050  0.000  0.000  0.000  0.000  0.000  0.188
 
band   6 # energy   23.52516683 # occ.  0.00000000
 
ion      s     py     pz     px    dxy    dyz    dz2    dxz    dx2    tot
  1  0.085  0.007  0.060  0.061  0.000  0.000  0.000  0.000  0.000  0.213
 

 k-point   17 :    0.28571429 0.04761905 0.00000000     weight = 0.00259151

band   1 # energy   -2.24636272 # occ.  2.00000000
 
ion      s     py     pz     px    dxy    dyz    dz2    dxz    dx2    tot
  1  0.339  0.025  0.013  0.013  0.000  0.000  0.000  0.000  0.000  0.389
 
band   2 # energy   10.42590689 # occ.  0.22315207
 
ion      s     py     pz     px    dxy    dyz    dz2    dxz    dx2    tot
  1  0.094  0.073  0.097  0.097  0.000  0.000  0.000  0.000  0.000  0.361
 
band   3 # energy   17.54133143 # occ.  0.00000000
 
ion      s     py     pz     px    dxy    dyz    dz2    dxz    dx2    tot
  1  0.000  0.000  0.230  0.230  0.000  0.000  0.000  0.000  0.000  0.460
 
band   4 # energy   18.70134948 # occ.  0.00000000
 
ion      s     py     pz     px    dxy    dyz    dz2    dxz    dx2    tot
  1  0.035  0.388  0.053  0.053  0.000  0.000  0.000  0.000  0.000  0.528
 
band   5 # energy   21.72746054 # occ.  0.00000000
 
ion      s     py     pz     px    dxy    dyz    dz2    dxz    dx2    tot
  1  0.003  0.056  0.018  0.018  0.000  0.000  0.000  0.000  0.000  0.095
 
band   6 # energy   23.37576124 # occ.  0.00000000
 
ion      s     py     pz     px    dxy    dyz    dz2    dxz    dx2    tot
  1  0.120  0.000  0.063  0.063  0.000  0.000  0.000  0.000  0.000  0.247
 

 k-point   18 :    0.33333333 0.04761905 0.00000000     weight = 0.00259151

band   1 # energy   -1.45590640 # occ.  2.00000000
 
ion      s     py     pz     px    dxy    dyz    dz2    dxz    dx2    tot
  1  0.325  0.032  0.017  0.017  0.000  0.000  0.000  0.000  0.000  0.391
 
band   2 # energy    8.64050305 # occ.  2.11924499
 
ion      s     py     pz     px    dxy    dyz    dz2    dxz    dx2    tot
  1  0.115  0.069  0.091  0.091  0.000  0.000  0.000  0.000  0.000  0.366
 
band   3 # energy   17.42185461 # occ.  0.00000000
 
ion      s     py     pz     px    dxy    dyz    dz2    dxz    dx2    tot
  1  0.000  0.000  0.236  0.236  0.000  0.000  0.000  0.000  0.000  0.472
 
band   4 # energy   18.44555851 # occ.  0.00000000
 
ion      s     py     pz     px    dxy    dyz    dz2    dxz    dx2    tot
  1  0.036  0.397  0.063  0.063  0.000  0.000  0.000  0.000  0.000  0.560
 
band   5 # energy   21.11513305 # occ.  0.00000000
 
ion      s     py     pz     px    dxy    dyz    dz2    dxz    dx2    tot
  1  0.003  0.028  0.006  0.006  0.000  0.000  0.000  0.000  0.000  0.043
 
band   6 # energy   23.14342563 # occ.  0.00000000
 
ion      s     py     pz     px    dxy    dyz    dz2    dxz    dx2    tot
  1  0.000  0.000  0.068  0.074  0.000  0.000  0.000  0.000  0.000  0.142
 

 k-point   19 :    0.38095238 0.04761905 0.00000000     weight = 0.00259151

band   1 # energy   -0.54163923 # occ.  2.00000000
 
ion      s     py     pz     px    dxy    dyz    dz2    dxz    dx2    tot
  1  0.312  0.038  0.022  0.022  0.000  0.000  0.000  0.000  0.000  0.395
 
band   2 # energy    6.95664471 # occ.  2.00000000
 
ion      s     py     pz     px    dxy    dyz    dz2    dxz    dx2    tot
  1  0.134  0.064  0.085  0.085  0.000  0.000  0.000  0.000  0.000  0.368
 
band   3 # energy   17.40320241 # occ.  0.00000000
 
ion      s     py     pz     px    dxy    dyz    dz2    dxz    dx2    tot
  1  0.000  0.000  0.244  0.244  0.000  0.000  0.000  0.000  0.000  0.488
 
band   4 # energy   18.20544291 # occ.  0.00000000
 
ion      s     py     pz     px    dxy    dyz    dz2    dxz    dx2    tot
  1  0.036  0.404  0.073  0.073  0.000  0.000  0.000  0.000  0.000  0.585
 
band   5 # energy   20.65317404 # occ.  0.00000000
 
ion      s     py     pz     px    dxy    dyz    dz2    dxz    dx2    tot
  1  0.004  0.007  0.001  0.001  0.000  0.000  0.000  0.000  0.000  0.012
 
band   6 # energy   22.45729602 # occ.  0.00000000
 
ion      s     py     pz     px    dxy    dyz    dz2    dxz    dx2    tot
  1  0.000  0.000  0.063  0.063  0.000  0.000  0.000  0.000  0.000  0.125
 

 k-point   20 :    0.42857143 0.04761905 0.00000000     weight = 0.00259151

band   1 # energy    0.48982703 # occ.  2.00000000
 
ion      s     py     pz     px    dxy    dyz    dz2    dxz    dx2    tot
  1  0.302  0.043  0.026  0.026  0.000  0.000  0.000  0.000  0.000  0.398
 
band   2 # energy    5.38268919 # occ.  2.00000000
 
ion      s     py     pz     px    dxy    dyz    dz2    dxz    dx2    tot
  1  0.147  0.061  0.080  0.080  0.000  0.000  0.000  0.000  0.000  0.369
 
band   3 # energy   17.48113142 # occ.  0.00000000
 
ion      s     py     pz     px    dxy    dyz    dz2    dxz    dx2    tot
  1  0.000  0.000  0.254  0.254  0.000  0.000  0.000  0.000  0.000  0.507
 
band   4 # energy   17.94697053 # occ.  0.00000000
 
ion      s     py     pz     px    dxy    dyz    dz2    dxz    dx2    tot
  1  0.034  0.396  0.079  0.079  0.000  0.000  0.000  0.000  0.000  0.588
 
band   5 # energy   20.40713210 # occ.  0.00000000
 
ion      s     py     pz     px    dxy    dyz    dz2    dxz    dx2    tot
  1  0.006  0.000  0.001  0.001  0.000  0.000  0.000  0.000  0.000  0.009
 
band   6 # energy   21.88429069 # occ.  0.00000000
 
ion      s     py     pz     px    dxy    dyz    dz2    dxz    dx2    tot
  1  0.000  0.000  0.054  0.054  0.000  0.000  0.000  0.000  0.000  0.108
 

 k-point   21 :    0.47619048 0.04761905 0.00000000     weight = 0.00259151

band   1 # energy    1.61993574 # occ.  2.00000000
 
ion      s     py     pz     px    dxy    dyz    dz2    dxz    dx2    tot
  1  0.317  0.043  0.025  0.025  0.000  0.000  0.000  0.000  0.000  0.409
 
band   2 # energy    3.94177287 # occ.  2.00000000
 
ion      s     py     pz     px    dxy    dyz    dz2    dxz    dx2    tot
  1  0.135  0.063  0.082  0.082  0.000  0.000  0.000  0.000  0.000  0.361
 
band   3 # energy   17.64572892 # occ.  0.00000000
 
ion      s     py     pz     px    dxy    dyz    dz2    dxz    dx2    tot
  1  0.000  0.000  0.266  0.265  0.000  0.000  0.000  0.000  0.000  0.531
 
band   4 # energy   17.66643093 # occ.  0.00000000
 
ion      s     py     pz     px    dxy    dyz    dz2    dxz    dx2    tot
  1  0.031  0.371  0.081  0.081  0.000  0.000  0.000  0.000  0.000  0.564
 
band   5 # energy   20.38518991 # occ.  0.00000000
 
ion      s     py     pz     px    dxy    dyz    dz2    dxz    dx2    tot
  1  0.009  0.009  0.007  0.007  0.000  0.000  0.000  0.000  0.000  0.032
 
band   6 # energy   21.43538183 # occ.  0.00000000
 
ion      s     py     pz     px    dxy    dyz    dz2    dxz    dx2    tot
  1  0.000  0.000  0.043  0.043  0.000  0.000  0.000  0.000  0.000  0.086
 

 k-point   22 :   -0.47619048 0.04761905 0.00000000     weight = 0.00259151

band   1 # energy    2.31103555 # occ.  2.00000000
 
ion      s     py     pz     px    dxy    dyz    dz2    dxz    dx2    tot
  1  0.423  0.002  0.010  0.010  0.000  0.000  0.000  0.000  0.000  0.445
 
band   2 # energy    3.17304254 # occ.  2.00000000
 
ion      s     py     pz     px    dxy    dyz    dz2    dxz    dx2    tot
  1  0.030  0.106  0.095  0.095  0.000  0.000  0.000  0.000  0.000  0.326
 
band   3 # energy   17.40033830 # occ.  0.00000000
 
ion      s     py     pz     px    dxy    dyz    dz2    dxz    dx2    tot
  1  0.029  0.341  0.081  0.081  0.000  0.000  0.000  0.000  0.000  0.532
 
band   4 # energy   17.88349040 # occ.  0.00000000
 
ion      s     py     pz     px    dxy    dyz    dz2    dxz    dx2    tot
  1  0.000  0.000  0.282  0.282  0.000  0.000  0.000  0.000  0.000  0.563
 
band   5 # energy   20.58954707 # occ.  0.00000000
 
ion      s     py     pz     px    dxy    dyz    dz2    dxz    dx2    tot
  1  0.012  0.024  0.015  0.015  0.000  0.000  0.000  0.000  0.000  0.064
 
band   6 # energy   21.14575818 # occ.  0.00000000
 
ion      s     py     pz     px    dxy    dyz    dz2    dxz    dx2    tot
  1  0.000  0.000  0.028  0.028  0.000  0.000  0.000  0.000  0.000  0.055
 

 k-point   23 :   -0.42857143 0.04761905 0.00000000     weight = 0.00259151

band   1 # energy    1.23578357 # occ.  2.00000000
 
ion      s     py     pz     px    dxy    dyz    dz2    dxz    dx2    tot
  1  0.306  0.022  0.038  0.038  0.000  0.000  0.000  0.000  0.000  0.404
 
band   2 # energy    4.40357070 # occ.  2.00000000
 
ion      s     py     pz     px    dxy    dyz    dz2    dxz    dx2    tot
  1  0.146  0.087  0.067  0.067  0.000  0.000  0.000  0.000  0.000  0.366
 
band   3 # energy   17.18342045 # occ.  0.00000000
 
ion      s     py     pz     px    dxy    dyz    dz2    dxz    dx2    tot
  1  0.027  0.314  0.081  0.081  0.000  0.000  0.000  0.000  0.000  0.504
 
band   4 # energy   18.16101735 # occ.  0.00000000
 
ion      s     py     pz     px    dxy    dyz    dz2    dxz    dx2    tot
  1  0.000  0.000  0.296  0.296  0.000  0.000  0.000  0.000  0.000  0.591
 
band   5 # energy   20.95086012 # occ.  0.00000000
 
ion      s     py     pz     px    dxy    dyz    dz2    dxz    dx2    tot
  1  0.012  0.035  0.022  0.022  0.000  0.000  0.000  0.000  0.000  0.092
 
band   6 # energy   21.00946252 # occ.  0.00000000
 
ion      s     py     pz     px    dxy    dyz    dz2    dxz    dx2    tot
  1  0.000  0.000  0.013  0.013  0.000  0.000  0.000  0.000  0.000  0.026
 

 k-point   24 :   -0.38095238 0.04761905 0.00000000     weight = 0.00259151
