 running on    1 total cores
 distrk:  each k-point on    1 cores,    1 groups
 distr:  one band on    1 cores,    1 groups
 using from now: INCAR     
 vasp.5.3.5 31Mar14 (build Feb  5 2015 19:39:53) complex                        
  
 POSCAR found :  1 types and       1 ions
 scaLAPACK will be used
 LDA part: xc-table for Pade appr. of Perdew
 POSCAR, INCAR and KPOINTS ok, starting setup
 WARNING: small aliasing (wrap around) errors must be expected
 FFT: planning ...
 WAVECAR not read
 entering main loop
       N       E                     dE             d eps       ncg     rms          rms(c)
DAV:   1    -0.338979876151E+01   -0.33898E+01   -0.12015E+03  3876   0.283E+02
DAV:   2    -0.487668923772E+01   -0.14869E+01   -0.14294E+01  4980   0.251E+01
DAV:   3    -0.488652082800E+01   -0.98316E-02   -0.98292E-02  4032   0.202E+00
DAV:   4    -0.488652873317E+01   -0.79052E-05   -0.79444E-05  5004   0.561E-02
DAV:   5    -0.488652873683E+01   -0.36616E-08   -0.34222E-08  3732   0.826E-04    0.770E-01
DAV:   6    -0.487372911001E+01    0.12800E-01   -0.40401E-03  3762   0.367E-01    0.460E-01
DAV:   7    -0.486637527823E+01    0.73538E-02   -0.89418E-03  3648   0.543E-01    0.253E-02
DAV:   8    -0.486636536494E+01    0.99133E-05   -0.31810E-05  3228   0.498E-02
   1 F= -.48663654E+01 E0= -.48663654E+01  d E =0.000000E+00
 writing wavefunctions
