fcc Si                                  
   3.50000000000000     
     0.495787    0.495787    0.000000
     0.000000    0.495787    0.495787
     0.495787    0.000000    0.495787
   Si
     1
Direct
  0.000000  0.000000  0.000000
 
   20   20   20
 -1.9137     -1.4528     -.21340      1.4300      3.0180      4.1802      4.7615      4.8438      4.6687      4.4906    
  4.4215      4.4906      4.6687      4.8438      4.7615      4.1802      3.0180      1.4300     -.21340     -1.4528    
 -1.4528     -.60371     0.82986      2.4233      3.7575      4.5736      4.8454      4.7478      4.5450      4.4145    
  4.4145      4.5449      4.7478      4.8454      4.5735      3.7575      2.4233     0.82997     -.60360     -1.4527    
 -.21340     0.82986      2.1957      3.4854      4.3884      4.7882      4.7756      4.5741      4.3961      4.3282    
  4.3960      4.5740      4.7757      4.7882      4.3884      3.4855      2.1958     0.83012     -.21317     -.60360    
  1.4300      2.4233      3.4854      4.3120      4.7356      4.7722      4.5836      4.3732      4.2469      4.2469    
  4.3732      4.5836      4.7723      4.7357      4.3120      3.4855      2.4235      1.4303     0.83012     0.82997    
  3.0180      3.7575      4.3884      4.7356      4.7666      4.5839      4.3548      4.1848      4.1224      4.1848    
  4.3548      4.5839      4.7667      4.7357      4.3884      3.7577      3.0182      2.4235      2.1958      2.4233    
  4.1802      4.5736      4.7882      4.7722      4.5839      4.3477      4.1515      4.0408      4.0408      4.1515    
  4.3477      4.5839      4.7723      4.7882      4.5736      4.1803      3.7577      3.4855      3.4855      3.7575    
  4.7615      4.8454      4.7756      4.5836      4.3548      4.1515      4.0126      3.9634      4.0126      4.1515    
  4.3548      4.5836      4.7757      4.8454      4.7615      4.5736      4.3884      4.3120      4.3884      4.5735    
  4.8438      4.7478      4.5741      4.3732      4.1848      4.0408      3.9634      3.9634      4.0408      4.1848    
  4.3732      4.5741      4.7478      4.8439      4.8454      4.7882      4.7357      4.7357      4.7882      4.8454    
  4.6687      4.5450      4.3961      4.2469      4.1224      4.0408      4.0126      4.0408      4.1224      4.2469    
  4.3961      4.5450      4.6688      4.7478      4.7757      4.7723      4.7667      4.7723      4.7757      4.7478    
  4.4906      4.4145      4.3282      4.2469      4.1848      4.1515      4.1515      4.1848      4.2469      4.3282    
  4.4145      4.4907      4.5450      4.5741      4.5836      4.5839      4.5839      4.5836      4.5740      4.5449    
  4.4215      4.4145      4.3960      4.3732      4.3548      4.3477      4.3548      4.3732      4.3961      4.4145    
  4.4216      4.4145      4.3961      4.3732      4.3548      4.3477      4.3548      4.3732      4.3960      4.4145    
  4.4906      4.5449      4.5740      4.5836      4.5839      4.5839      4.5836      4.5741      4.5450      4.4907    
  4.4145      4.3282      4.2469      4.1848      4.1515      4.1515      4.1848      4.2469      4.3282      4.4145    
  4.6687      4.7478      4.7757      4.7723      4.7667      4.7723      4.7757      4.7478      4.6688      4.5450    
  4.3961      4.2469      4.1224      4.0408      4.0126      4.0408      4.1224      4.2469      4.3961      4.5450    
  4.8438      4.8454      4.7882      4.7357      4.7357      4.7882      4.8454      4.8439      4.7478      4.5741    
  4.3732      4.1848      4.0408      3.9634      3.9634      4.0408      4.1848      4.3732      4.5741      4.7478    
  4.7615      4.5735      4.3884      4.3120      4.3884      4.5736      4.7615      4.8454      4.7757      4.5836    
  4.3548      4.1515      4.0126      3.9634      4.0126      4.1515      4.3548      4.5836      4.7756      4.8454    
  4.1802      3.7575      3.4855      3.4855      3.7577      4.1803      4.5736      4.7882      4.7723      4.5839    
  4.3477      4.1515      4.0408      4.0408      4.1515      4.3477      4.5839      4.7722      4.7882      4.5736    
  3.0180      2.4233      2.1958      2.4235      3.0182      3.7577      4.3884      4.7357      4.7667      4.5839    
  4.3548      4.1848      4.1224      4.1848      4.3548      4.5839      4.7666      4.7356      4.3884      3.7575    
  1.4300     0.82997     0.83012      1.4303      2.4235      3.4855      4.3120      4.7357      4.7723      4.5836    
  4.3732      4.2469      4.2469      4.3732      4.5836      4.7722      4.7356      4.3120      3.4854      2.4233    
 -.21340     -.60360     -.21317     0.83012      2.1958      3.4855      4.3884      4.7882      4.7757      4.5740    
  4.3960      4.3282      4.3961      4.5741      4.7756      4.7882      4.3884      3.4854      2.1957     0.82986    
 -1.4528     -1.4527     -.60360     0.82997      2.4233      3.7575      4.5735      4.8454      4.7478      4.5449    
  4.4145      4.4145      4.5450      4.7478      4.8454      4.5736      3.7575      2.4233     0.82986     -.60371    
 -1.4530     -.60351     0.83030      2.4236      3.7576      4.5735      4.8454      4.7479      4.5450      4.4145    
  4.4145      4.5450      4.7478      4.8453      4.5735      3.7576      2.4234     0.82981     -.60408     -1.4533    
 -.60351     0.50672      1.9660      3.3546      4.3423      4.8005      4.8177      4.6237      4.4454      4.3770    
  4.4454      4.6237      4.8177      4.8005      4.3423      3.3546      1.9656     0.50611     -.60401     -1.0183    
 0.83030      1.9660      3.1974      4.1830      4.7270      4.8335      4.6697      4.4605      4.3325      4.3325    
  4.4605      4.6697      4.8334      4.7270      4.1831      3.1973      1.9656     0.82982     0.14842     0.14865    
  2.4236      3.3546      4.1830      4.6927      4.8277      4.6889      4.4645      4.2917      4.2274      4.2917    
  4.4645      4.6889      4.8277      4.6929      4.1831      3.3545      2.4233      1.6895      1.4112      1.6898    
  3.7576      4.3423      4.7270      4.8277      4.6933      4.4642      4.2635      4.1481      4.1481      4.2635    
  4.4642      4.6932      4.8277      4.7271      4.3424      3.7576      3.1682      2.7991      2.7991      3.1683    
  4.5735      4.8005      4.8335      4.6889      4.4642      4.2535      4.1060      4.0531      4.1060      4.2535    
  4.4642      4.6889      4.8335      4.8005      4.5736      4.2360      3.9374      3.8186      3.9374      4.2360    
  4.8454      4.8177      4.6697      4.4645      4.2635      4.1060      4.0201      4.0201      4.1060      4.2635    
  4.4645      4.6697      4.8177      4.8454      4.7515      4.6018      4.4923      4.4923      4.6018      4.7515    
  4.7479      4.6237      4.4605      4.2917      4.1481      4.0531      4.0201      4.0532      4.1482      4.2917    
  4.4605      4.6237      4.7478      4.7994      4.7818      4.7370      4.7148      4.7370      4.7818      4.7995    
  4.5450      4.4454      4.3325      4.2274      4.1481      4.1060      4.1060      4.1482      4.2275      4.3325    
  4.4454      4.5450      4.6144      4.6468      4.6482      4.6395      4.6396      4.6482      4.6469      4.6144    
  4.4145      4.3770      4.3325      4.2917      4.2635      4.2535      4.2635      4.2917      4.3325      4.3770    
  4.4145      4.4364      4.4398      4.4297      4.4166      4.4108      4.4166      4.4298      4.4398      4.4363    
  4.4145      4.4454      4.4605      4.4645      4.4642      4.4642      4.4645      4.4605      4.4454      4.4145    
  4.3677      4.3107      4.2532      4.2068      4.1808      4.1808      4.2068      4.2532      4.3106      4.3677    
  4.5450      4.6237      4.6697      4.6889      4.6932      4.6889      4.6697      4.6237      4.5450      4.4364    
  4.3107      4.1869      4.0842      4.0171      3.9939      4.0171      4.0842      4.1869      4.3106      4.4364    
  4.7478      4.8177      4.8334      4.8277      4.8277      4.8335      4.8177      4.7478      4.6144      4.4398    
  4.2532      4.0842      3.9580      3.8911      3.8911      3.9580      4.0842      4.2532      4.4399      4.6144    
  4.8453      4.8005      4.7270      4.6929      4.7271      4.8005      4.8454      4.7994      4.6468      4.4297    
  4.2068      4.0171      3.8911      3.8470      3.8910      4.0171      4.2068      4.4298      4.6469      4.7994    
  4.5735      4.3423      4.1831      4.1831      4.3424      4.5736      4.7515      4.7818      4.6482      4.4166    
  4.1808      3.9939      3.8911      3.8910      3.9939      4.1809      4.4167      4.6482      4.7818      4.7515    
  3.7576      3.3546      3.1973      3.3545      3.7576      4.2360      4.6018      4.7370      4.6395      4.4108    
  4.1808      4.0171      3.9580      4.0171      4.1809      4.4108      4.6396      4.7370      4.6018      4.2360    
  2.4234      1.9656      1.9656      2.4233      3.1682      3.9374      4.4923      4.7148      4.6396      4.4166    
  4.2068      4.0842      4.0842      4.2068      4.4167      4.6396      4.7148      4.4923      3.9374      3.1682    
 0.82981     0.50611     0.82982      1.6895      2.7991      3.8186      4.4923      4.7370      4.6482      4.4298    
  4.2532      4.1869      4.2532      4.4298      4.6482      4.7370      4.4923      3.8186      2.7991      1.6895    
 -.60408     -.60401     0.14842      1.4112      2.7991      3.9374      4.6018      4.7818      4.6469      4.4398    
  4.3106      4.3106      4.4399      4.6469      4.7818      4.6018      3.9374      2.7991      1.4111     0.14827    
 -1.4533     -1.0183     0.14865      1.6898      3.1683      4.2360      4.7515      4.7995      4.6144      4.4363    
  4.3677      4.4364      4.6144      4.7994      4.7515      4.2360      3.1682      1.6895     0.14827     -1.0186    
 -.21378     0.82976      2.1959      3.4857      4.3885      4.7882      4.7757      4.5741      4.3961      4.3282    
  4.3961      4.5741      4.7757      4.7882      4.3884      3.4855      2.1960     0.83010     -.21344     -.60404    
 0.82976      1.9658      3.1976      4.1833      4.7271      4.8335      4.6697      4.4605      4.3326      4.3325    
  4.4605      4.6697      4.8335      4.7270      4.1831      3.1974      1.9658     0.82994     0.14822     0.14812    
  2.1959      3.1976      4.0993      4.6699      4.8444      4.7236      4.5020      4.3284      4.2636      4.3284    
  4.5019      4.7236      4.8444      4.6698      4.0991      3.1975      2.1958      1.4109      1.1138      1.4109    
  3.4857      4.1833      4.6699      4.8428      4.7450      4.5236      4.3216      4.2041      4.2041      4.3215    
  4.5236      4.7450      4.8429      4.6698      4.1831      3.4855      2.7989      2.3734      2.3734      2.7990    
  4.3885      4.7271      4.8444      4.7450      4.5302      4.3169      4.1648      4.1099      4.1648      4.3169    
  4.5301      4.7450      4.8444      4.7270      4.3884      3.9373      3.5537      3.4035      3.5538      3.9374    
  4.7882      4.8335      4.7236      4.5236      4.3169      4.1512      4.0598      4.0598      4.1512      4.3168    
  4.5236      4.7236      4.8335      4.7882      4.6018      4.3661      4.2048      4.2048      4.3662      4.6019    
  4.7757      4.6697      4.5020      4.3216      4.1648      4.0598      4.0230      4.0598      4.1648      4.3215    
  4.5019      4.6697      4.7757      4.7818      4.7061      4.6128      4.5718      4.6128      4.7061      4.7818    
  4.5741      4.4605      4.3284      4.2041      4.1099      4.0598      4.0598      4.1100      4.2041      4.3284    
  4.4605      4.5741      4.6468      4.6646      4.6422      4.6160      4.6160      4.6422      4.6646      4.6468    
  4.3961      4.3326      4.2636      4.2041      4.1648      4.1512      4.1648      4.2041      4.2636      4.3326    
  4.3961      4.4398      4.4567      4.4513      4.4368      4.4294      4.4368      4.4513      4.4568      4.4399    
  4.3282      4.3325      4.3284      4.3215      4.3169      4.3168      4.3215      4.3284      4.3326      4.3282    
  4.3107      4.2797      4.2409      4.2047      4.1828      4.1828      4.2047      4.2409      4.2797      4.3107    
  4.3961      4.4605      4.5019      4.5236      4.5301      4.5236      4.5019      4.4605      4.3961      4.3107    
  4.2125      4.1149      4.0322      3.9772      3.9579      3.9772      4.0322      4.1149      4.2125      4.3106    
  4.5741      4.6697      4.7236      4.7450      4.7450      4.7236      4.6697      4.5741      4.4398      4.2797    
  4.1149      3.9688      3.8611      3.8044      3.8044      3.8611      3.9688      4.1149      4.2797      4.4398    
  4.7757      4.8335      4.8444      4.8429      4.8444      4.8335      4.7757      4.6468      4.4567      4.2409    
  4.0322      3.8611      3.7500      3.7116      3.7500      3.8611      4.0322      4.2409      4.4568      4.6469    
  4.7882      4.7270      4.6698      4.6698      4.7270      4.7882      4.7818      4.6646      4.4513      4.2047    
  3.9772      3.8044      3.7116      3.7116      3.8044      3.9772      4.2047      4.4513      4.6647      4.7818    
  4.3884      4.1831      4.0991      4.1831      4.3884      4.6018      4.7061      4.6422      4.4368      4.1828    
  3.9579      3.8044      3.7500      3.8044      3.9579      4.1828      4.4368      4.6422      4.7061      4.6018    
  3.4855      3.1974      3.1975      3.4855      3.9373      4.3661      4.6128      4.6160      4.4294      4.1828    
  3.9772      3.8611      3.8611      3.9772      4.1828      4.4294      4.6161      4.6129      4.3661      3.9373    
  2.1960      1.9658      2.1958      2.7989      3.5537      4.2048      4.5718      4.6160      4.4368      4.2047    
  4.0322      3.9688      4.0322      4.2047      4.4368      4.6161      4.5718      4.2048      3.5538      2.7990    
 0.83010     0.82994      1.4109      2.3734      3.4035      4.2048      4.6128      4.6422      4.4513      4.2409    
  4.1149      4.1149      4.2409      4.4513      4.6422      4.6129      4.2048      3.4036      2.3736      1.4113    
 -.21344     0.14822      1.1138      2.3734      3.5538      4.3662      4.7061      4.6646      4.4568      4.2797    
  4.2125      4.2797      4.4568      4.6647      4.7061      4.3661      3.5538      2.3736      1.1143     0.14859    
 -.60404     0.14812      1.4109      2.7990      3.9374      4.6019      4.7818      4.6468      4.4399      4.3107    
  4.3106      4.4398      4.6469      4.7818      4.6018      3.9373      2.7990      1.4113     0.14859     -.60382    
  1.4302      2.4232      3.4853      4.3119      4.7356      4.7723      4.5836      4.3732      4.2469      4.2469    
  4.3732      4.5836      4.7723      4.7357      4.3120      3.4855      2.4234      1.4303     0.83025     0.83020    
  2.4232      3.3543      4.1829      4.6928      4.8277      4.6889      4.4645      4.2917      4.2275      4.2917    
  4.4645      4.6889      4.8277      4.6929      4.1831      3.3546      2.4235      1.6897      1.4113      1.6895    
  3.4853      4.1829      4.6698      4.8429      4.7451      4.5236      4.3215      4.2041      4.2041      4.3215    
  4.5236      4.7451      4.8429      4.6698      4.1831      3.4856      2.7991      2.3737      2.3736      2.7988    
  4.3119      4.6928      4.8429      4.7619      4.5520      4.3382      4.1849      4.1294      4.1849      4.3383    
  4.5520      4.7619      4.8429      4.6928      4.3121      3.8187      3.4037      3.2418      3.4035      3.8184    
  4.7356      4.8277      4.7451      4.5520      4.3436      4.1745      4.0806      4.0806      4.1745      4.3436    
  4.5520      4.7451      4.8277      4.7356      4.4923      4.2049      4.0126      4.0125      4.2047      4.4922    
  4.7723      4.6889      4.5236      4.3382      4.1745      4.0638      4.0248      4.0638      4.1745      4.3383    
  4.5236      4.6889      4.7722      4.7370      4.6129      4.4807      4.4247      4.4806      4.6128      4.7370    
  4.5836      4.4645      4.3215      4.1849      4.0806      4.0248      4.0248      4.0806      4.1849      4.3215    
  4.4645      4.5836      4.6482      4.6422      4.5912      4.5460      4.5460      4.5912      4.6422      4.6482    
  4.3732      4.2917      4.2041      4.1294      4.0806      4.0638      4.0806      4.1294      4.2041      4.2917    
  4.3732      4.4298      4.4513      4.4411      4.4174      4.4056      4.4174      4.4411      4.4513      4.4297    
  4.2469      4.2275      4.2041      4.1849      4.1745      4.1745      4.1849      4.2041      4.2275      4.2469    
  4.2532      4.2409      4.2126      4.1799      4.1581      4.1582      4.1799      4.2126      4.2408      4.2532    
  4.2469      4.2917      4.3215      4.3383      4.3436      4.3383      4.3215      4.2917      4.2469      4.1869    
  4.1149      4.0387      3.9702      3.9222      3.9050      3.9223      3.9702      4.0387      4.1148      4.1869    
  4.3732      4.4645      4.5236      4.5520      4.5520      4.5236      4.4645      4.3732      4.2532      4.1149    
  3.9743      3.8498      3.7573      3.7082      3.7082      3.7573      3.8498      3.9743      4.1149      4.2532    
  4.5836      4.6889      4.7451      4.7619      4.7451      4.6889      4.5836      4.4298      4.2409      4.0387    
  3.8498      3.6981      3.6010      3.5677      3.6010      3.6981      3.8498      4.0387      4.2409      4.4298    
  4.7723      4.8277      4.8429      4.8429      4.8277      4.7722      4.6482      4.4513      4.2126      3.9702    
  3.7573      3.6010      3.5188      3.5188      3.6010      3.7573      3.9702      4.2126      4.4513      4.6482    
  4.7357      4.6929      4.6698      4.6928      4.7356      4.7370      4.6422      4.4411      4.1799      3.9222    
  3.7082      3.5677      3.5188      3.5677      3.7082      3.9222      4.1799      4.4410      4.6421      4.7370    
  4.3120      4.1831      4.1831      4.3121      4.4923      4.6129      4.5912      4.4174      4.1581      3.9050    
  3.7082      3.6010      3.6010      3.7082      3.9050      4.1581      4.4174      4.5912      4.6128      4.4923    
  3.4855      3.3546      3.4856      3.8187      4.2049      4.4807      4.5460      4.4056      4.1582      3.9223    
  3.7573      3.6981      3.7573      3.9222      4.1581      4.4056      4.5460      4.4807      4.2048      3.8186    
  2.4234      2.4235      2.7991      3.4037      4.0126      4.4247      4.5460      4.4174      4.1799      3.9702    
  3.8498      3.8498      3.9702      4.1799      4.4174      4.5460      4.4247      4.0126      3.4036      2.7989    
  1.4303      1.6897      2.3737      3.2418      4.0125      4.4806      4.5912      4.4411      4.2126      4.0387    
  3.9743      4.0387      4.2126      4.4410      4.5912      4.4807      4.0126      3.2417      2.3735      1.6896    
 0.83025      1.4113      2.3736      3.4035      4.2047      4.6128      4.6422      4.4513      4.2408      4.1148    
  4.1149      4.2409      4.4513      4.6421      4.6128      4.2048      3.4036      2.3735      1.4111     0.83014    
 0.83020      1.6895      2.7988      3.8184      4.4922      4.7370      4.6482      4.4297      4.2532      4.1869    
  4.2532      4.4298      4.6482      4.7370      4.4923      3.8186      2.7989      1.6896     0.83014     0.50663    
  3.0185      3.7579      4.3884      4.7355      4.7665      4.5839      4.3548      4.1848      4.1223      4.1848    
  4.3548      4.5839      4.7666      4.7356      4.3884      3.7576      3.0180      2.4233      2.1958      2.4237    
  3.7579      4.3424      4.7269      4.8275      4.6932      4.4643      4.2635      4.1481      4.1481      4.2635    
  4.4642      4.6932      4.8277      4.7271      4.3424      3.7576      3.1681      2.7990      2.7992      3.1685    
  4.3884      4.7269      4.8442      4.7449      4.5301      4.3169      4.1648      4.1099      4.1648      4.3169    
  4.5301      4.7450      4.8444      4.7271      4.3884      3.9373      3.5538      3.4038      3.5541      3.9375    
  4.7355      4.8275      4.7449      4.5520      4.3436      4.1745      4.0805      4.0806      4.1745      4.3436    
  4.5520      4.7450      4.8277      4.7357      4.4923      4.2048      4.0127      4.0128      4.2050      4.4923    
  4.7665      4.6932      4.5301      4.3436      4.1777      4.0652      4.0255      4.0652      4.1778      4.3436    
  4.5301      4.6933      4.7667      4.7148      4.5718      4.4248      4.3633      4.4248      4.5718      4.7147    
  4.5839      4.4643      4.3169      4.1745      4.0652      4.0066      4.0066      4.0652      4.1745      4.3168    
  4.4642      4.5839      4.6396      4.6160      4.5460      4.4885      4.4885      4.5460      4.6160      4.6395    
  4.3548      4.2635      4.1648      4.0805      4.0255      4.0066      4.0256      4.0806      4.1648      4.2635    
  4.3548      4.4166      4.4368      4.4174      4.3832      4.3670      4.3832      4.4174      4.4368      4.4166    
  4.1848      4.1481      4.1099      4.0806      4.0652      4.0652      4.0806      4.1099      4.1481      4.1848    
  4.2068      4.2047      4.1799      4.1458      4.1217      4.1217      4.1458      4.1799      4.2047      4.2068    
  4.1223      4.1481      4.1648      4.1745      4.1778      4.1745      4.1648      4.1481      4.1224      4.0842    
  4.0322      3.9702      3.9088      3.8629      3.8458      3.8629      3.9088      3.9702      4.0322      4.0842    
  4.1848      4.2635      4.3169      4.3436      4.3436      4.3168      4.2635      4.1848      4.0842      3.9688    
  3.8498      3.7413      3.6583      3.6132      3.6133      3.6583      3.7413      3.8498      3.9688      4.0842    
  4.3548      4.4642      4.5301      4.5520      4.5301      4.4642      4.3548      4.2068      4.0322      3.8498    
  3.6809      3.5456      3.4586      3.4288      3.4587      3.5456      3.6809      3.8498      4.0322      4.2068    
  4.5839      4.6932      4.7450      4.7450      4.6933      4.5839      4.4166      4.2047      3.9702      3.7413    
  3.5456      3.4045      3.3312      3.3312      3.4045      3.5456      3.7413      3.9702      4.2047      4.4166    
  4.7666      4.8277      4.8444      4.8277      4.7667      4.6396      4.4368      4.1799      3.9088      3.6583    
  3.4586      3.3312      3.2875      3.3312      3.4586      3.6583      3.9088      4.1799      4.4368      4.6395    
  4.7356      4.7271      4.7271      4.7357      4.7148      4.6160      4.4174      4.1458      3.8629      3.6132    
  3.4288      3.3312      3.3312      3.4288      3.6132      3.8629      4.1458      4.4174      4.6160      4.7148    
  4.3884      4.3424      4.3884      4.4923      4.5718      4.5460      4.3832      4.1217      3.8458      3.6133    
  3.4587      3.4045      3.4586      3.6132      3.8458      4.1217      4.3832      4.5460      4.5718      4.4923    
  3.7576      3.7576      3.9373      4.2048      4.4248      4.4885      4.3670      4.1217      3.8629      3.6583    
  3.5456      3.5456      3.6583      3.8629      4.1217      4.3669      4.4884      4.4247      4.2048      3.9373    
  3.0180      3.1681      3.5538      4.0127      4.3633      4.4885      4.3832      4.1458      3.9088      3.7413    
  3.6809      3.7413      3.9088      4.1458      4.3832      4.4884      4.3632      4.0126      3.5538      3.1681    
  2.4233      2.7990      3.4038      4.0128      4.4248      4.5460      4.4174      4.1799      3.9702      3.8498    
  3.8498      3.9702      4.1799      4.4174      4.5460      4.4247      4.0126      3.4036      2.7989      2.4232    
  2.1958      2.7992      3.5541      4.2050      4.5718      4.6160      4.4368      4.2047      4.0322      3.9688    
  4.0322      4.2047      4.4368      4.6160      4.5718      4.2048      3.5538      2.7989      2.1957      1.9656    
  2.4237      3.1685      3.9375      4.4923      4.7147      4.6395      4.4166      4.2068      4.0842      4.0842    
  4.2068      4.4166      4.6395      4.7148      4.4923      3.9373      3.1681      2.4232      1.9656      1.9658    
  4.1803      4.5738      4.7885      4.7724      4.5839      4.3477      4.1515      4.0409      4.0408      4.1514    
  4.3477      4.5839      4.7723      4.7882      4.5736      4.1803      3.7576      3.4854      3.4852      3.7574    
  4.5738      4.8008      4.8336      4.6889      4.4642      4.2535      4.1060      4.0531      4.1060      4.2535    
  4.4642      4.6889      4.8334      4.8005      4.5736      4.2360      3.9372      3.8184      3.9371      4.2360    
  4.7885      4.8336      4.7236      4.5235      4.3168      4.1513      4.0598      4.0598      4.1512      4.3168    
  4.5236      4.7236      4.8334      4.7882      4.6018      4.3661      4.2047      4.2047      4.3661      4.6020    
  4.7724      4.6889      4.5235      4.3382      4.1745      4.0638      4.0248      4.0637      4.1745      4.3383    
  4.5236      4.6889      4.7722      4.7370      4.6128      4.4806      4.4247      4.4807      4.6130      4.7372    
  4.5839      4.4642      4.3168      4.1745      4.0652      4.0066      4.0066      4.0652      4.1745      4.3168    
  4.4642      4.5839      4.6395      4.6160      4.5460      4.4884      4.4884      4.5461      4.6162      4.6396    
  4.3477      4.2535      4.1513      4.0638      4.0066      3.9869      4.0066      4.0638      4.1512      4.2535    
  4.3477      4.4108      4.4294      4.4056      4.3669      4.3488      4.3670      4.4057      4.4295      4.4108    
  4.1515      4.1060      4.0598      4.0248      4.0066      4.0066      4.0248      4.0598      4.1060      4.1515    
  4.1808      4.1828      4.1581      4.1217      4.0952      4.0952      4.1217      4.1581      4.1828      4.1808    
  4.0409      4.0531      4.0598      4.0637      4.0652      4.0638      4.0598      4.0531      4.0408      4.0171    
  3.9772      3.9223      3.8629      3.8163      3.7985      3.8162      3.8629      3.9222      3.9772      4.0172    
  4.0408      4.1060      4.1512      4.1745      4.1745      4.1512      4.1060      4.0408      3.9580      3.8611    
  3.7573      3.6583      3.5794      3.5353      3.5353      3.5794      3.6583      3.7573      3.8612      3.9580    
  4.1514      4.2535      4.3168      4.3383      4.3168      4.2535      4.1515      4.0171      3.8611      3.6981    
  3.5456      3.4211      3.3398      3.3115      3.3397      3.4211      3.5456      3.6982      3.8611      4.0171    
  4.3477      4.4642      4.5236      4.5236      4.4642      4.3477      4.1808      3.9772      3.7573      3.5456    
  3.3656      3.2358      3.1682      3.1682      3.2358      3.3656      3.5456      3.7573      3.9772      4.1808    
  4.5839      4.6889      4.7236      4.6889      4.5839      4.4108      4.1828      3.9223      3.6583      3.4211    
  3.2358      3.1190      3.0792      3.1190      3.2358      3.4211      3.6583      3.9223      4.1828      4.4108    
  4.7723      4.8334      4.8334      4.7722      4.6395      4.4294      4.1581      3.8629      3.5794      3.3398    
  3.1682      3.0792      3.0792      3.1682      3.3398      3.5794      3.8629      4.1582      4.4295      4.6396    
  4.7882      4.8005      4.7882      4.7370      4.6160      4.4056      4.1217      3.8163      3.5353      3.3115    
  3.1682      3.1190      3.1682      3.3115      3.5353      3.8162      4.1217      4.4057      4.6161      4.7370    
  4.5736      4.5736      4.6018      4.6128      4.5460      4.3669      4.0952      3.7985      3.5353      3.3397    
  3.2358      3.2358      3.3398      3.5353      3.7985      4.0952      4.3670      4.5460      4.6128      4.6018    
  4.1803      4.2360      4.3661      4.4806      4.4884      4.3488      4.0952      3.8162      3.5794      3.4211    
  3.3656      3.4211      3.5794      3.8162      4.0952      4.3488      4.4885      4.4807      4.3661      4.2361    
  3.7576      3.9372      4.2047      4.4247      4.4884      4.3670      4.1217      3.8629      3.6583      3.5456    
  3.5456      3.6583      3.8629      4.1217      4.3670      4.4885      4.4248      4.2048      3.9374      3.7577    
  3.4854      3.8184      4.2047      4.4807      4.5461      4.4057      4.1581      3.9222      3.7573      3.6982    
  3.7573      3.9223      4.1582      4.4057      4.5460      4.4807      4.2048      3.8187      3.4856      3.3546    
  3.4852      3.9371      4.3661      4.6130      4.6162      4.4295      4.1828      3.9772      3.8612      3.8611    
  3.9772      4.1828      4.4295      4.6161      4.6128      4.3661      3.9374      3.4856      3.1974      3.1972    
  3.7574      4.2360      4.6020      4.7372      4.6396      4.4108      4.1808      4.0172      3.9580      4.0171    
  4.1808      4.4108      4.6396      4.7370      4.6018      4.2361      3.7577      3.3546      3.1972      3.3543    
  4.7611      4.8451      4.7757      4.5837      4.3549      4.1515      4.0126      3.9635      4.0127      4.1515    
  4.3548      4.5836      4.7757      4.8454      4.7615      4.5736      4.3885      4.3122      4.3884      4.5733    
  4.8451      4.8177      4.6699      4.4647      4.2636      4.1060      4.0201      4.0201      4.1060      4.2635    
  4.4645      4.6697      4.8177      4.8454      4.7515      4.6019      4.4924      4.4923      4.6016      4.7512    
  4.7757      4.6699      4.5021      4.3216      4.1648      4.0598      4.0231      4.0599      4.1648      4.3215    