fcc Si                                  
   3.50000000000000     
     0.495787    0.495787    0.000000
     0.000000    0.495787    0.495787
     0.495787    0.000000    0.495787
   Si
     1
Direct
  0.000000  0.000000  0.000000
 
   20   20   20
 -.19136630871E+01 -.14527540745E+01 -.21340272584E+00 0.14300422252E+01 0.30179767174E+01
 0.41802383965E+01 0.47615079424E+01 0.48438402731E+01 0.46687340445E+01 0.44906422821E+01
 0.44215390281E+01 0.44906422821E+01 0.46687340445E+01 0.48438402731E+01 0.47615079424E+01
 0.41802383965E+01 0.30179767174E+01 0.14300422252E+01 -.21340272584E+00 -.14527540745E+01
 -.14527540745E+01 -.60371058003E+00 0.82985657495E+00 0.24232646459E+01 0.37575463403E+01
 0.45735541552E+01 0.48453693219E+01 0.47478138845E+01 0.45449806909E+01 0.44145157255E+01
 0.44144902716E+01 0.45449471456E+01 0.47478220852E+01 0.48453890939E+01 0.45735395690E+01
 0.37575323716E+01 0.24233196898E+01 0.82997462394E+00 -.60360121687E+00 -.14527118140E+01
 -.21340272584E+00 0.82985657495E+00 0.21957070009E+01 0.34854486524E+01 0.43883944366E+01
 0.47882203421E+01 0.47756466506E+01 0.45740565383E+01 0.43960652087E+01 0.43281590914E+01
 0.43960397386E+01 0.45740469728E+01 0.47756719851E+01 0.47882422338E+01 0.43883790200E+01
 0.34854519604E+01 0.21958385614E+01 0.83012112920E+00 -.21317479859E+00 -.60360121687E+00
 0.14300422252E+01 0.24232646459E+01 0.34854486524E+01 0.43120147633E+01 0.47356418191E+01
 0.47722403166E+01 0.45835764930E+01 0.43732471307E+01 0.42469135284E+01 0.42469058851E+01
 0.43732377031E+01 0.45835930083E+01 0.47722835238E+01 0.47356698784E+01 0.43120141206E+01
 0.34855080164E+01 0.24234841637E+01 0.14303450898E+01 0.83012112920E+00 0.82997462394E+00
 0.30179767174E+01 0.37575463403E+01 0.43883944366E+01 0.47356418191E+01 0.47666391074E+01
 0.45838866557E+01 0.43547959315E+01 0.41848272242E+01 0.41223533727E+01 0.41847968701E+01
 0.43547913153E+01 0.45839340487E+01 0.47666938445E+01 0.47356586959E+01 0.43884123725E+01
 0.37576500352E+01 0.30181711543E+01 0.24234841637E+01 0.21958385614E+01 0.24233196898E+01
 0.41802383965E+01 0.45735541552E+01 0.47882203421E+01 0.47722403166E+01 0.45838866557E+01
 0.43477357387E+01 0.41514910531E+01 0.40408478123E+01 0.40408298182E+01 0.41514641482E+01
 0.43477423659E+01 0.45839238376E+01 0.47722665822E+01 0.47882219014E+01 0.45735766015E+01
 0.41803255129E+01 0.37576500352E+01 0.34855080164E+01 0.34854519604E+01 0.37575323716E+01
 0.47615079424E+01 0.48453693219E+01 0.47756466506E+01 0.45835764930E+01 0.43547959315E+01
 0.41514910531E+01 0.40126216831E+01 0.39634366872E+01 0.40126126879E+01 0.41514758002E+01
 0.43547859115E+01 0.45835801196E+01 0.47756591365E+01 0.48453821855E+01 0.47615287259E+01
 0.45735766015E+01 0.43884123725E+01 0.43120141206E+01 0.43883790200E+01 0.45735395690E+01
 0.48438402731E+01 0.47478138845E+01 0.45740565383E+01 0.43732471307E+01 0.41848272242E+01
 0.40408478123E+01 0.39634366872E+01 0.39634327695E+01 0.40408380979E+01 0.41848150355E+01
 0.43732401543E+01 0.45740611030E+01 0.47478289023E+01 0.48438523833E+01 0.48453821855E+01
 0.47882219014E+01 0.47356586959E+01 0.47356698784E+01 0.47882422338E+01 0.48453890939E+01
 0.46687340445E+01 0.45449806909E+01 0.43960652087E+01 0.42469135284E+01 0.41223533727E+01
 0.40408298182E+01 0.40126126879E+01 0.40408380979E+01 0.41223573737E+01 0.42469073302E+01
 0.43960602721E+01 0.45449906999E+01 0.46687518249E+01 0.47478289023E+01 0.47756591365E+01
 0.47722665822E+01 0.47666938445E+01 0.47722835238E+01 0.47756719851E+01 0.47478220852E+01
 0.44906422821E+01 0.44145157255E+01 0.43281590914E+01 0.42469058851E+01 0.41847968701E+01
 0.41514641482E+01 0.41514758002E+01 0.41848150355E+01 0.42469073302E+01 0.43281509096E+01
 0.44145271916E+01 0.44906836082E+01 0.45449906999E+01 0.45740611030E+01 0.45835801196E+01
 0.45839238376E+01 0.45839340487E+01 0.45835930083E+01 0.45740469728E+01 0.45449471456E+01
 0.44215390281E+01 0.44144902716E+01 0.43960397386E+01 0.43732377031E+01 0.43547913153E+01
 0.43477423659E+01 0.43547859115E+01 0.43732401543E+01 0.43960602721E+01 0.44145271916E+01
 0.44215818700E+01 0.44145271916E+01 0.43960602721E+01 0.43732401543E+01 0.43547859115E+01
 0.43477423659E+01 0.43547913153E+01 0.43732377031E+01 0.43960397386E+01 0.44144902716E+01
 0.44906422821E+01 0.45449471456E+01 0.45740469728E+01 0.45835930083E+01 0.45839340487E+01
 0.45839238376E+01 0.45835801196E+01 0.45740611030E+01 0.45449906999E+01 0.44906836082E+01
 0.44145271916E+01 0.43281509096E+01 0.42469073302E+01 0.41848150355E+01 0.41514758002E+01
 0.41514641482E+01 0.41847968701E+01 0.42469058851E+01 0.43281590914E+01 0.44145157255E+01
 0.46687340445E+01 0.47478220852E+01 0.47756719851E+01 0.47722835238E+01 0.47666938445E+01
 0.47722665822E+01 0.47756591365E+01 0.47478289023E+01 0.46687518249E+01 0.45449906999E+01
 0.43960602721E+01 0.42469073302E+01 0.41223573737E+01 0.40408380979E+01 0.40126126879E+01
 0.40408298182E+01 0.41223533727E+01 0.42469135284E+01 0.43960652087E+01 0.45449806909E+01
 0.48438402731E+01 0.48453890939E+01 0.47882422338E+01 0.47356698784E+01 0.47356586959E+01
 0.47882219014E+01 0.48453821855E+01 0.48438523833E+01 0.47478289023E+01 0.45740611030E+01
 0.43732401543E+01 0.41848150355E+01 0.40408380979E+01 0.39634327695E+01 0.39634366872E+01
 0.40408478123E+01 0.41848272242E+01 0.43732471307E+01 0.45740565383E+01 0.47478138845E+01
 0.47615079424E+01 0.45735395690E+01 0.43883790200E+01 0.43120141206E+01 0.43884123725E+01
 0.45735766015E+01 0.47615287259E+01 0.48453821855E+01 0.47756591365E+01 0.45835801196E+01
 0.43547859115E+01 0.41514758002E+01 0.40126126879E+01 0.39634366872E+01 0.40126216831E+01
 0.41514910531E+01 0.43547959315E+01 0.45835764930E+01 0.47756466506E+01 0.48453693219E+01
 0.41802383965E+01 0.37575323716E+01 0.34854519604E+01 0.34855080164E+01 0.37576500352E+01
 0.41803255129E+01 0.45735766015E+01 0.47882219014E+01 0.47722665822E+01 0.45839238376E+01
 0.43477423659E+01 0.41514641482E+01 0.40408298182E+01 0.40408478123E+01 0.41514910531E+01
 0.43477357387E+01 0.45838866557E+01 0.47722403166E+01 0.47882203421E+01 0.45735541552E+01
 0.30179767174E+01 0.24233196898E+01 0.21958385614E+01 0.24234841637E+01 0.30181711543E+01
 0.37576500352E+01 0.43884123725E+01 0.47356586959E+01 0.47666938445E+01 0.45839340487E+01
 0.43547913153E+01 0.41847968701E+01 0.41223533727E+01 0.41848272242E+01 0.43547959315E+01
 0.45838866557E+01 0.47666391074E+01 0.47356418191E+01 0.43883944366E+01 0.37575463403E+01
 0.14300422252E+01 0.82997462394E+00 0.83012112920E+00 0.14303450898E+01 0.24234841637E+01
 0.34855080164E+01 0.43120141206E+01 0.47356698784E+01 0.47722835238E+01 0.45835930083E+01
 0.43732377031E+01 0.42469058851E+01 0.42469135284E+01 0.43732471307E+01 0.45835764930E+01
 0.47722403166E+01 0.47356418191E+01 0.43120147633E+01 0.34854486524E+01 0.24232646459E+01
 -.21340272584E+00 -.60360121687E+00 -.21317479859E+00 0.83012112920E+00 0.21958385614E+01
 0.34854519604E+01 0.43883790200E+01 0.47882422338E+01 0.47756719851E+01 0.45740469728E+01
 0.43960397386E+01 0.43281590914E+01 0.43960652087E+01 0.45740565383E+01 0.47756466506E+01
 0.47882203421E+01 0.43883944366E+01 0.34854486524E+01 0.21957070009E+01 0.82985657495E+00
 -.14527540745E+01 -.14527118140E+01 -.60360121687E+00 0.82997462394E+00 0.24233196898E+01
 0.37575323716E+01 0.45735395690E+01 0.48453890939E+01 0.47478220852E+01 0.45449471456E+01
 0.44144902716E+01 0.44145157255E+01 0.45449806909E+01 0.47478138845E+01 0.48453693219E+01
 0.45735541552E+01 0.37575463403E+01 0.24232646459E+01 0.82985657495E+00 -.60371058003E+00
 -.14530035075E+01 -.60350822358E+00 0.83030305562E+00 0.24235930176E+01 0.37576049269E+01
 0.45735021451E+01 0.48454024072E+01 0.47479096850E+01 0.45450050455E+01 0.44144703988E+01
 0.44144948675E+01 0.45450193097E+01 0.47478487716E+01 0.48453341833E+01 0.45735251356E+01
 0.37576397344E+01 0.24234097208E+01 0.82980682348E+00 -.60408280496E+00 -.14532594556E+01
 -.60350822358E+00 0.50672035346E+00 0.19659872896E+01 0.33546050667E+01 0.43422982928E+01
 0.48004989244E+01 0.48177193586E+01 0.46237405601E+01 0.44454032894E+01 0.43769892781E+01
 0.44453989907E+01 0.46237041340E+01 0.48176602826E+01 0.48004834388E+01 0.43423407854E+01
 0.33545563192E+01 0.19656406954E+01 0.50610668296E+00 -.60401363480E+00 -.10183218044E+01
 0.83030305562E+00 0.19659872896E+01 0.31974358420E+01 0.41829962017E+01 0.47269769414E+01
 0.48334798604E+01 0.46697309507E+01 0.44604540352E+01 0.43325172985E+01 0.43325359157E+01
 0.44604630948E+01 0.46696813909E+01 0.48334330556E+01 0.47270245657E+01 0.41830759266E+01
 0.31973363826E+01 0.19655997299E+01 0.82981754219E+00 0.14842330992E+00 0.14864602078E+00
 0.24235930176E+01 0.33546050667E+01 0.41829962017E+01 0.46927488593E+01 0.48276616019E+01
 0.46889348174E+01 0.44645224052E+01 0.42916552711E+01 0.42274313723E+01 0.42917141808E+01
 0.44645302815E+01 0.46888788518E+01 0.48276659949E+01 0.46928630204E+01 0.41830783290E+01
 0.33544957386E+01 0.24233271217E+01 0.16895450896E+01 0.14112435500E+01 0.16897656955E+01
 0.37576049269E+01 0.43422982928E+01 0.47269769414E+01 0.48276616019E+01 0.46932591498E+01
 0.44642405238E+01 0.42634872235E+01 0.41481118685E+01 0.41481360952E+01 0.42635241488E+01
 0.44642398258E+01 0.46932396749E+01 0.48276855696E+01 0.47270522923E+01 0.43423537806E+01
 0.37575764599E+01 0.31681894887E+01 0.27990640028E+01 0.27991081125E+01 0.31682722483E+01
 0.45735021451E+01 0.48004989244E+01 0.48334798604E+01 0.46889348174E+01 0.44642405238E+01
 0.42534976640E+01 0.41059779138E+01 0.40531444748E+01 0.41059975837E+01 0.42535164298E+01
 0.44642346431E+01 0.46889082812E+01 0.48334699832E+01 0.48005312242E+01 0.45735549094E+01
 0.42360248358E+01 0.39373689958E+01 0.38186428880E+01 0.39373641450E+01 0.42359931062E+01
 0.48454024072E+01 0.48177193586E+01 0.46697309507E+01 0.44645224052E+01 0.42634872235E+01
 0.41059779138E+01 0.40200874280E+01 0.40200986370E+01 0.41060024507E+01 0.42635067689E+01
 0.44645212394E+01 0.46697024108E+01 0.48176757376E+01 0.48453744506E+01 0.47515381680E+01
 0.46018364219E+01 0.44923078292E+01 0.44922841171E+01 0.46017927010E+01 0.47515236513E+01
 0.47479096850E+01 0.46237405601E+01 0.44604540352E+01 0.42916552711E+01 0.41481118685E+01
 0.40531444748E+01 0.40200986370E+01 0.40531653836E+01 0.41481538591E+01 0.42916990874E+01
 0.44604621537E+01 0.46236892488E+01 0.47478262556E+01 0.47994050305E+01 0.47818028311E+01
 0.47370159519E+01 0.47148017588E+01 0.47369928235E+01 0.47818040656E+01 0.47994612744E+01
 0.45450050455E+01 0.44454032894E+01 0.43325172985E+01 0.42274313723E+01 0.41481360952E+01
 0.41059975837E+01 0.41060024507E+01 0.41481538591E+01 0.42274632926E+01 0.43325490276E+01
 0.44454142462E+01 0.45449853832E+01 0.46143548819E+01 0.46468078601E+01 0.46481954601E+01
 0.46395471701E+01 0.46395624386E+01 0.46482357149E+01 0.46468590448E+01 0.46143989938E+01
 0.44144703988E+01 0.43769892781E+01 0.43325359157E+01 0.42917141808E+01 0.42635241488E+01
 0.42535164298E+01 0.42635067689E+01 0.42916990874E+01 0.43325490276E+01 0.43770366586E+01
 0.44145253213E+01 0.44363732052E+01 0.44398179397E+01 0.44297495394E+01 0.44166057065E+01
 0.44107939607E+01 0.44166454273E+01 0.44298008734E+01 0.44398422023E+01 0.44363496435E+01
 0.44144948675E+01 0.44453989907E+01 0.44604630948E+01 0.44645302815E+01 0.44642398258E+01
 0.44642346431E+01 0.44645212394E+01 0.44604621537E+01 0.44454142462E+01 0.44145253213E+01
 0.43677318162E+01 0.43106551930E+01 0.42532184234E+01 0.42067551074E+01 0.41808354676E+01
 0.41808451335E+01 0.42067721912E+01 0.42532209319E+01 0.43106338592E+01 0.43676972753E+01
 0.45450193097E+01 0.46237041340E+01 0.46696813909E+01 0.46888788518E+01 0.46932396749E+01
 0.46889082812E+01 0.46697024108E+01 0.46236892488E+01 0.45449853832E+01 0.44363732052E+01
 0.43106551930E+01 0.41868890569E+01 0.40842120390E+01 0.40171393591E+01 0.39939313508E+01
 0.40171441059E+01 0.40842041714E+01 0.41868648195E+01 0.43106396122E+01 0.44363887410E+01
 0.47478487716E+01 0.48176602826E+01 0.48334330556E+01 0.48276659949E+01 0.48276855696E+01
 0.48334699832E+01 0.48176757376E+01 0.47478262556E+01 0.46143548819E+01 0.44398179397E+01
 0.42532184234E+01 0.40842120390E+01 0.39579948079E+01 0.38910588362E+01 0.38910554295E+01
 0.39579877128E+01 0.40842100574E+01 0.42532323124E+01 0.44398512838E+01 0.46143966621E+01
 0.48453341833E+01 0.48004834388E+01 0.47270245657E+01 0.46928630204E+01 0.47270522923E+01
 0.48005312242E+01 0.48453744506E+01 0.47994050305E+01 0.46468078601E+01 0.44297495394E+01
 0.42067551074E+01 0.40171393591E+01 0.38910588362E+01 0.38469847172E+01 0.38910444653E+01
 0.40171357984E+01 0.42067872405E+01 0.44298106948E+01 0.46468582098E+01 0.47994069905E+01
 0.45735251356E+01 0.43423407854E+01 0.41830759266E+01 0.41830783290E+01 0.43423537806E+01
 0.45735549094E+01 0.47515381680E+01 0.47818028311E+01 0.46481954601E+01 0.44166057065E+01
 0.41808354676E+01 0.39939313508E+01 0.38910554295E+01 0.38910444653E+01 0.39939230594E+01
 0.41808642521E+01 0.44166619628E+01 0.46482328032E+01 0.47817953425E+01 0.47515043004E+01
 0.37576397344E+01 0.33545563192E+01 0.31973363826E+01 0.33544957386E+01 0.37575764599E+01
 0.42360248358E+01 0.46018364219E+01 0.47370159519E+01 0.46395471701E+01 0.44107939607E+01
 0.41808451335E+01 0.40171441059E+01 0.39579877128E+01 0.40171357984E+01 0.41808642521E+01
 0.44108399166E+01 0.46395667933E+01 0.47369806135E+01 0.46017905146E+01 0.42360314623E+01
 0.24234097208E+01 0.19656406954E+01 0.19655997299E+01 0.24233271217E+01 0.31681894887E+01
 0.39373689958E+01 0.44923078292E+01 0.47148017588E+01 0.46395624386E+01 0.44166454273E+01
 0.42067721912E+01 0.40842041714E+01 0.40842100574E+01 0.42067872405E+01 0.44166619628E+01
 0.46395667933E+01 0.47147822664E+01 0.44922746259E+01 0.39373619489E+01 0.31682408039E+01
 0.82980682348E+00 0.50610668296E+00 0.82981754219E+00 0.16895450896E+01 0.27990640028E+01
 0.38186428880E+01 0.44922841171E+01 0.47369928235E+01 0.46482357149E+01 0.44298008734E+01
 0.42532209319E+01 0.41868648195E+01 0.42532323124E+01 0.44298106948E+01 0.46482328032E+01
 0.47369806135E+01 0.44922746259E+01 0.38186412172E+01 0.27990618414E+01 0.16895350807E+01
 -.60408280496E+00 -.60401363480E+00 0.14842330992E+00 0.14112435500E+01 0.27991081125E+01
 0.39373641450E+01 0.46017927010E+01 0.47818040656E+01 0.46468590448E+01 0.44398422023E+01
 0.43106338592E+01 0.43106396122E+01 0.44398512838E+01 0.46468582098E+01 0.47817953425E+01
 0.46017905146E+01 0.39373619489E+01 0.27990618414E+01 0.14111212961E+01 0.14827358769E+00
 -.14532594556E+01 -.10183218044E+01 0.14864602078E+00 0.16897656955E+01 0.31682722483E+01
 0.42359931062E+01 0.47515236513E+01 0.47994612744E+01 0.46143989938E+01 0.44363496435E+01
 0.43676972753E+01 0.44363887410E+01 0.46143966621E+01 0.47994069905E+01 0.47515043004E+01
 0.42360314623E+01 0.31682408039E+01 0.16895350807E+01 0.14827358769E+00 -.10186083273E+01
 -.21377851305E+00 0.82976386673E+00 0.21958864335E+01 0.34856834618E+01 0.43885068752E+01
 0.47882358036E+01 0.47756816111E+01 0.45741284884E+01 0.43961035636E+01 0.43281512566E+01
 0.43960509528E+01 0.45741001949E+01 0.47757103400E+01 0.47882357068E+01 0.43883888994E+01
 0.34855405832E+01 0.21959510001E+01 0.83010069619E+00 -.21344078761E+00 -.60404248200E+00
 0.82976386673E+00 0.19657835176E+01 0.31976045049E+01 0.41832559334E+01 0.47270803214E+01
 0.48334598522E+01 0.46697499522E+01 0.44605391442E+01 0.43325686260E+01 0.43325233663E+01
 0.44604676906E+01 0.46697460204E+01 0.48334926993E+01 0.47270230095E+01 0.41830755771E+01
 0.31974490906E+01 0.19658151027E+01 0.82993780989E+00 0.14821953966E+00 0.14812013639E+00
 0.21958864335E+01 0.31976045049E+01 0.40993137797E+01 0.46698641988E+01 0.48444187033E+01
 0.47236050202E+01 0.45019808912E+01 0.43284153669E+01 0.42635815031E+01 0.43283565431E+01
 0.45019441900E+01 0.47236311667E+01 0.48444380890E+01 0.46697833305E+01 0.40991432237E+01
 0.31974560274E+01 0.21958404821E+01 0.14109350987E+01 0.11138452090E+01 0.14109175259E+01
 0.34856834618E+01 0.41832559334E+01 0.46698641988E+01 0.48428479198E+01 0.47450199602E+01
 0.45236404946E+01 0.43215588763E+01 0.42040919502E+01 0.42040825618E+01 0.43215381664E+01
 0.45236325793E+01 0.47450418730E+01 0.48428598027E+01 0.46697963786E+01 0.41831084374E+01
 0.34855448775E+01 0.27989120368E+01 0.23734037570E+01 0.23734140544E+01 0.27989746190E+01
 0.43885068752E+01 0.47270803214E+01 0.48444187033E+01 0.47450199602E+01 0.45301646835E+01
 0.43168784045E+01 0.41648194900E+01 0.41098959533E+01 0.41648089967E+01 0.43168569754E+01
 0.45301456340E+01 0.47450184967E+01 0.48444193218E+01 0.47270443555E+01 0.43884203965E+01
 0.39373026828E+01 0.35537182717E+01 0.34035363387E+01 0.35537877257E+01 0.39374071866E+01
 0.47882358036E+01 0.48334598522E+01 0.47236050202E+01 0.45236404946E+01 0.43168784045E+01
 0.41512468739E+01 0.40598022342E+01 0.40597904224E+01 0.41512189805E+01 0.43168450668E+01
 0.45236043549E+01 0.47235768113E+01 0.48334521844E+01 0.47882292369E+01 0.46018106573E+01
 0.43660898267E+01 0.42047693444E+01 0.42048077133E+01 0.43661632516E+01 0.46018539375E+01
 0.47756816111E+01 0.46697499522E+01 0.45019808912E+01 0.43215588763E+01 0.41648194900E+01
 0.40598022342E+01 0.40230392533E+01 0.40598219104E+01 0.41648235392E+01 0.43215203983E+01
 0.45019145845E+01 0.46696933758E+01 0.47756568673E+01 0.47817895086E+01 0.47060887968E+01
 0.46128398362E+01 0.45718175414E+01 0.46128472798E+01 0.47060943745E+01 0.47817949930E+01
 0.45741284884E+01 0.44605391442E+01 0.43284153669E+01 0.42040919502E+01 0.41098959533E+01
 0.40597904224E+01 0.40598219104E+01 0.41099520949E+01 0.42041046879E+01 0.43283630260E+01
 0.44604614460E+01 0.45740718352E+01 0.46468042024E+01 0.46646271622E+01 0.46421614515E+01
 0.46160421682E+01 0.46160392782E+01 0.46421556215E+01 0.46646265684E+01 0.46468259288E+01
 0.43961035636E+01 0.43325686260E+01 0.42635815031E+01 0.42040825618E+01 0.41648089967E+01
 0.41512189805E+01 0.41648235392E+01 0.42041046879E+01 0.42635947447E+01 0.43325562815E+01
 0.43960680399E+01 0.44398132266E+01 0.44567320556E+01 0.44512605580E+01 0.44367942787E+01
 0.44294274168E+01 0.44367942541E+01 0.44512675388E+01 0.44567549609E+01 0.44398509974E+01
 0.43281512566E+01 0.43325233663E+01 0.43283565431E+01 0.43215381664E+01 0.43168569754E+01
 0.43168450668E+01 0.43215203983E+01 0.43283630260E+01 0.43325562815E+01 0.43281779568E+01
 0.43106601429E+01 0.42796865965E+01 0.42408588522E+01 0.42046931077E+01 0.41827943202E+01
 0.41827855406E+01 0.42046833026E+01 0.42408722854E+01 0.42797141007E+01 0.43106670610E+01
 0.43960509528E+01 0.44604676906E+01 0.45019441900E+01 0.45236325793E+01 0.45301456340E+01
 0.45236043549E+01 0.45019145845E+01 0.44604614460E+01 0.43960680399E+01 0.43106601429E+01
 0.42125488392E+01 0.41148709968E+01 0.40322249632E+01 0.39771734742E+01 0.39578911435E+01
 0.39771726895E+01 0.40322258772E+01 0.41148700912E+01 0.42125376962E+01 0.43106384551E+01
 0.45741001949E+01 0.46697460204E+01 0.47236311667E+01 0.47450418730E+01 0.47450184967E+01
 0.47235768113E+01 0.46696933758E+01 0.45740718352E+01 0.44398132266E+01 0.42796865965E+01
 0.41148709968E+01 0.39688282015E+01 0.38611286246E+01 0.38043981286E+01 0.38044002890E+01
 0.38611314441E+01 0.39688246022E+01 0.41148606346E+01 0.42796769200E+01 0.44398163484E+01
 0.47757103400E+01 0.48334926993E+01 0.48444380890E+01 0.48428598027E+01 0.48444193218E+01
 0.48334521844E+01 0.47756568673E+01 0.46468042024E+01 0.44567320556E+01 0.42408588522E+01
 0.40322249632E+01 0.38611286246E+01 0.37500137481E+01 0.37116395260E+01 0.37500077024E+01
 0.38611194050E+01 0.40322177329E+01 0.42408610014E+01 0.44567549609E+01 0.46468504421E+01
 0.47882357068E+01 0.47270230095E+01 0.46697833305E+01 0.46697963786E+01 0.47270443555E+01
 0.47882292369E+01 0.47817895086E+01 0.46646271622E+01 0.44512605580E+01 0.42046931077E+01
 0.39771734742E+01 0.38043981286E+01 0.37116395260E+01 0.37116418375E+01 0.38043942225E+01
 0.39771544282E+01 0.42046796937E+01 0.44512836823E+01 0.46646811694E+01 0.47818345737E+01
 0.43883888994E+01 0.41830755771E+01 0.40991432237E+01 0.41831084374E+01 0.43884203965E+01
 0.46018106573E+01 0.47060887968E+01 0.46421614515E+01 0.44367942787E+01 0.41827943202E+01
 0.39578911435E+01 0.38044002890E+01 0.37500077024E+01 0.38043942225E+01 0.39578790738E+01
 0.41827850568E+01 0.44368037256E+01 0.46421919956E+01 0.47061194557E+01 0.46018117024E+01
 0.34855405832E+01 0.31974490906E+01 0.31974560274E+01 0.34855448775E+01 0.39373026828E+01
 0.43660898267E+01 0.46128398362E+01 0.46160421682E+01 0.44294274168E+01 0.41827855406E+01
 0.39771726895E+01 0.38611314441E+01 0.38611194050E+01 0.39771544282E+01 0.41827850568E+01
 0.44294387991E+01 0.46160517733E+01 0.46128545344E+01 0.43661139664E+01 0.39373187278E+01
 0.21959510001E+01 0.19658151027E+01 0.21958404821E+01 0.27989120368E+01 0.35537182717E+01
 0.42047693444E+01 0.45718175414E+01 0.46160392782E+01 0.44367942541E+01 0.42046833026E+01
 0.40322258772E+01 0.39688246022E+01 0.40322177329E+01 0.42046796937E+01 0.44368037256E+01
 0.46160517733E+01 0.45718203556E+01 0.42047819804E+01 0.35537877257E+01 0.27990413573E+01
 0.83010069619E+00 0.82993780989E+00 0.14109350987E+01 0.23734037570E+01 0.34035363387E+01
 0.42048077133E+01 0.46128472798E+01 0.46421556215E+01 0.44512675388E+01 0.42408722854E+01
 0.41148700912E+01 0.41148606346E+01 0.42408610014E+01 0.44512836823E+01 0.46421919956E+01
 0.46128545344E+01 0.42047819804E+01 0.34035894878E+01 0.23736454207E+01 0.14112719154E+01
 -.21344078761E+00 0.14821953966E+00 0.11138452090E+01 0.23734140544E+01 0.35537877257E+01
 0.43661632516E+01 0.47060943745E+01 0.46646265684E+01 0.44567549609E+01 0.42797141007E+01
 0.42125376962E+01 0.42796769200E+01 0.44567549609E+01 0.46646811694E+01 0.47061194557E+01
 0.43661139664E+01 0.35537877257E+01 0.23736454207E+01 0.11142906305E+01 0.14859197275E+00
 -.60404248200E+00 0.14812013639E+00 0.14109175259E+01 0.27989746190E+01 0.39374071866E+01
 0.46018539375E+01 0.47817949930E+01 0.46468259288E+01 0.44398509974E+01 0.43106670610E+01
 0.43106384551E+01 0.44398163484E+01 0.46468504421E+01 0.47818345737E+01 0.46018117024E+01
 0.39373187278E+01 0.27990413573E+01 0.14112719154E+01 0.14859197275E+00 -.60382109753E+00
 0.14301856825E+01 0.24232001274E+01 0.34852502486E+01 0.43118696961E+01 0.47356369631E+01
 0.47722960658E+01 0.45835880037E+01 0.43732149536E+01 0.42469008704E+01 0.42469264087E+01
 0.43732469229E+01 0.45835704149E+01 0.47722655058E+01 0.47356885275E+01 0.43120384944E+01
 0.34854787397E+01 0.24234074332E+01 0.14303224722E+01 0.83024699483E+00 0.83019971374E+00
 0.24232001274E+01 0.33542895809E+01 0.41829069530E+01 0.46928135509E+01 0.48277250445E+01
 0.46889442104E+01 0.44645289983E+01 0.42916920708E+01 0.42274683849E+01 0.42917243153E+01
 0.44645349054E+01 0.46889086134E+01 0.48277106993E+01 0.46928883412E+01 0.41830889685E+01
 0.33545578885E+01 0.24234938831E+01 0.16897467414E+01 0.14112953680E+01 0.16895447350E+01
 0.34852502486E+01 0.41829069530E+01 0.46697847847E+01 0.48429317175E+01 0.47450696095E+01
 0.45236093767E+01 0.43215332818E+01 0.42041208065E+01 0.42041221926E+01 0.43215430495E+01
 0.45236233595E+01 0.47450643023E+01 0.48429107781E+01 0.46698237133E+01 0.41830981475E+01
 0.34855868700E+01 0.27991141091E+01 0.23737070722E+01 0.23735660066E+01 0.27987786571E+01
 0.43118696961E+01 0.46928135509E+01 0.48429317175E+01 0.47619080923E+01 0.45519689679E+01
 0.43382339290E+01 0.41849394384E+01 0.41294357021E+01 0.41849420262E+01 0.43382522609E+01
 0.45519893629E+01 0.47618949877E+01 0.48428954938E+01 0.46928461553E+01 0.43120615527E+01
 0.38186739614E+01 0.34037076306E+01 0.32418197306E+01 0.34034657954E+01 0.38183652195E+01
 0.47356369631E+01 0.48277250445E+01 0.47450696095E+01 0.45519689679E+01 0.43435891471E+01
 0.41745438444E+01 0.40806058445E+01 0.40805939396E+01 0.41745287129E+01 0.43435997874E+01
 0.45519882757E+01 0.47450529124E+01 0.48276788407E+01 0.47356479073E+01 0.44923181154E+01
 0.42048613956E+01 0.40126387693E+01 0.40125422347E+01 0.42046614945E+01 0.44921797390E+01
 0.47722960658E+01 0.46889442104E+01 0.45236093767E+01 0.43382339290E+01 0.41745438444E+01
 0.40638146355E+01 0.40248385609E+01 0.40637720140E+01 0.41745197603E+01 0.43382517134E+01
 0.45236175987E+01 0.46889018909E+01 0.47722444135E+01 0.47369997358E+01 0.46128527593E+01
 0.44806689926E+01 0.44247157388E+01 0.44805929693E+01 0.46127741313E+01 0.47369902678E+01
 0.45835880037E+01 0.44645289983E+01 0.43215332818E+01 0.41849394384E+01 0.40806058445E+01
 0.40248385609E+01 0.40248225827E+01 0.40805753066E+01 0.41849210851E+01 0.43215301260E+01
 0.44645249148E+01 0.45835746572E+01 0.46481923646E+01 0.46421572356E+01 0.45911858088E+01
 0.45459719155E+01 0.45459738429E+01 0.45911910324E+01 0.46421664010E+01 0.46482068591E+01
 0.43732149536E+01 0.42916920708E+01 0.42041208065E+01 0.41294357021E+01 0.40805939396E+01
 0.40637720140E+01 0.40805753066E+01 0.41294073623E+01 0.42041036861E+01 0.42917024278E+01
 0.43732432305E+01 0.44297531218E+01 0.44512624622E+01 0.44410559492E+01 0.44173989659E+01
 0.44056375404E+01 0.44174284450E+01 0.44410951072E+01 0.44512818138E+01 0.44297389199E+01
 0.42469008704E+01 0.42274683849E+01 0.42041221926E+01 0.41849420262E+01 0.41745287129E+01
 0.41745197603E+01 0.41849210851E+01 0.42041036861E+01 0.42274676138E+01 0.42469243035E+01
 0.42532303730E+01 0.42408678913E+01 0.42125726473E+01 0.41798867636E+01 0.41581393312E+01
 0.41581529868E+01 0.41799104384E+01 0.42125751961E+01 0.42408407020E+01 0.42531929680E+01
 0.42469264087E+01 0.42917243153E+01 0.43215430495E+01 0.43382522609E+01 0.43435997874E+01
 0.43382517134E+01 0.43215301260E+01 0.42917024278E+01 0.42469243035E+01 0.41869135520E+01
 0.41148897357E+01 0.40387132316E+01 0.39701823073E+01 0.39222400968E+01 0.39049968349E+01
 0.39222602438E+01 0.39701853731E+01 0.40386739476E+01 0.41148283369E+01 0.41868744738E+01
 0.43732469229E+01 0.44645349054E+01 0.45236233595E+01 0.45519893629E+01 0.45519882757E+01
 0.45236175987E+01 0.44645249148E+01 0.43732432305E+01 0.42532303730E+01 0.41148897357E+01
 0.39743405736E+01 0.38497620875E+01 0.37572878465E+01 0.37082451437E+01 0.37082480873E+01
 0.37572903969E+01 0.38497521373E+01 0.39743145928E+01 0.41148608714E+01 0.42532163079E+01
 0.45835704149E+01 0.46889086134E+01 0.47450643023E+01 0.47618949877E+01 0.47450529124E+01
 0.46889018909E+01 0.45835746572E+01 0.44297531218E+01 0.42408678913E+01 0.40387132316E+01
 0.38497620875E+01 0.36981372863E+01 0.36009994418E+01 0.35676735466E+01 0.36009841979E+01
 0.36981243125E+01 0.38497670644E+01 0.40387326722E+01 0.42408814101E+01 0.44297513230E+01
 0.47722655058E+01 0.48277106993E+01 0.48429107781E+01 0.48428954938E+01 0.48276788407E+01
 0.47722444135E+01 0.46481923646E+01 0.44512624622E+01 0.42125726473E+01 0.39701823073E+01
 0.37572878465E+01 0.36009994418E+01 0.35187973226E+01 0.35187884472E+01 0.36009859693E+01
 0.37572901229E+01 0.39701974275E+01 0.42125805561E+01 0.44512585839E+01 0.46481933422E+01
 0.47356885275E+01 0.46928883412E+01 0.46698237133E+01 0.46928461553E+01 0.47356479073E+01
 0.47369997358E+01 0.46421572356E+01 0.44410559492E+01 0.41798867636E+01 0.39222400968E+01
 0.37082451437E+01 0.35676735466E+01 0.35187884472E+01 0.35676694306E+01 0.37082446039E+01
 0.39222429289E+01 0.41798792003E+01 0.44410293445E+01 0.46421283552E+01 0.47370024778E+01
 0.43120384944E+01 0.41830889685E+01 0.41830981475E+01 0.43120615527E+01 0.44923181154E+01
 0.46128527593E+01 0.45911858088E+01 0.44173989659E+01 0.41581393312E+01 0.39049968349E+01
 0.37082480873E+01 0.36009841979E+01 0.36009859693E+01 0.37082446039E+01 0.39049772045E+01
 0.41581130662E+01 0.44173813573E+01 0.45911757278E+01 0.46128369898E+01 0.44922928286E+01
 0.34854787397E+01 0.33545578885E+01 0.34855868700E+01 0.38186739614E+01 0.42048613956E+01
 0.44806689926E+01 0.45459719155E+01 0.44056375404E+01 0.41581529868E+01 0.39222602438E+01
 0.37572903969E+01 0.36981243125E+01 0.37572901229E+01 0.39222429289E+01 0.41581130662E+01
 0.44056013990E+01 0.45459713417E+01 0.44806840822E+01 0.42048242968E+01 0.38185616908E+01
 0.24234074332E+01 0.24234938831E+01 0.27991141091E+01 0.34037076306E+01 0.40126387693E+01
 0.44247157388E+01 0.45459738429E+01 0.44174284450E+01 0.41799104384E+01 0.39701853731E+01
 0.38497521373E+01 0.38497670644E+01 0.39701974275E+01 0.41798792003E+01 0.44173813573E+01
 0.45459713417E+01 0.44247476811E+01 0.40126141091E+01 0.34035682758E+01 0.27989286858E+01
 0.14303224722E+01 0.16897467414E+01 0.23737070722E+01 0.32418197306E+01 0.40125422347E+01
 0.44805929693E+01 0.45911910324E+01 0.44410951072E+01 0.42125751961E+01 0.40386739476E+01
 0.39743145928E+01 0.40387326722E+01 0.42125805561E+01 0.44410293445E+01 0.45911757278E+01
 0.44806840822E+01 0.40126141091E+01 0.32417260760E+01 0.23734757060E+01 0.16895547439E+01
 0.83024699483E+00 0.14112953680E+01 0.23735660066E+01 0.34034657954E+01 0.42046614945E+01
 0.46127741313E+01 0.46421664010E+01 0.44512818138E+01 0.42408407020E+01 0.41148283369E+01
 0.41148608714E+01 0.42408814101E+01 0.44512585839E+01 0.46421283552E+01 0.46128369898E+01
 0.42048242968E+01 0.34035682758E+01 0.23734757060E+01 0.14110870509E+01 0.83013815724E+00
 0.83019971374E+00 0.16895447350E+01 0.27987786571E+01 0.38183652195E+01 0.44921797390E+01
 0.47369902678E+01 0.46482068591E+01 0.44297389199E+01 0.42531929680E+01 0.41868744738E+01
 0.42532163079E+01 0.44297513230E+01 0.46481933422E+01 0.47370024778E+01 0.44922928286E+01
 0.38185616908E+01 0.27989286858E+01 0.16895547439E+01 0.83013815724E+00 0.50663347496E+00
 0.30184649432E+01 0.37578543599E+01 0.43883944366E+01 0.47354935058E+01 0.47665492549E+01
 0.45838878830E+01 0.43547959315E+01 0.41847811762E+01 0.41223055912E+01 0.41847862614E+01
 0.43547913153E+01 0.45839011988E+01 0.47666382258E+01 0.47356306205E+01 0.43884123725E+01
 0.37575881575E+01 0.30179769313E+01 0.24232639760E+01 0.21958385614E+01 0.24236591537E+01
 0.37578543599E+01 0.43423757223E+01 0.47268569264E+01 0.48275016935E+01 0.46932005632E+01
 0.44642655275E+01 0.42634991836E+01 0.41480822660E+01 0.41481117405E+01 0.42635306332E+01