   1   1   0   0
  0.1045009E+02  0.2454021E-09  0.2454021E-09  0.2454021E-09  0.5000000E-15
  1.000000000000000E-004
  CAR 
 fcc Si                                  
     38.20207823     -4.70735969  301     15.08964448      1.00000000
     -4.707  0.0000E+00  0.0000E+00
     -4.564  0.0000E+00  0.0000E+00
     -4.421  0.0000E+00  0.0000E+00
     -4.278  0.0000E+00  0.0000E+00
     -4.135  0.0000E+00  0.0000E+00
     -3.992  0.0000E+00  0.0000E+00
     -3.849  0.0000E+00  0.0000E+00
     -3.706  0.0000E+00  0.0000E+00
     -3.563  0.0000E+00  0.0000E+00
     -3.420  0.0000E+00  0.0000E+00
     -3.277  0.1998E-15  0.2858E-16
     -3.134  0.1016E-09  0.1454E-10
     -2.991  0.9801E-06  0.1402E-06
     -2.848  0.2071E-03  0.2975E-04
     -2.705  0.1412E-02  0.2317E-03
     -2.562  0.1693E-02  0.4738E-03
     -2.419  0.1319E-01  0.2361E-02
     -2.276  0.1339E-01  0.4276E-02
     -2.133  0.1804E-02  0.4534E-02
     -1.990  0.8463E-02  0.5744E-02
     -1.847  0.1548E-01  0.7959E-02
     -1.704  0.1595E-01  0.1024E-01
     -1.561  0.4072E-01  0.1606E-01
     -1.418  0.1132E-01  0.1768E-01
     -1.275  0.1192E-02  0.1786E-01
     -1.132  0.8027E-02  0.1900E-01
     -0.989  0.6352E-02  0.1991E-01
     -0.846  0.3852E-01  0.2542E-01
     -0.702  0.5167E-01  0.3281E-01
     -0.559  0.8262E-02  0.3399E-01
     -0.416  0.1554E-01  0.3622E-01
     -0.273  0.3178E-01  0.4076E-01
     -0.130  0.2114E-01  0.4379E-01
      0.013  0.4368E-01  0.5004E-01
      0.156  0.5253E-02  0.5079E-01
      0.299  0.1837E-02  0.5105E-01
      0.442  0.1619E-01  0.5336E-01
      0.585  0.1318E-01  0.5525E-01
      0.728  0.7384E-01  0.6581E-01
      0.871  0.7500E-01  0.7654E-01
      1.014  0.9457E-02  0.7789E-01
      1.157  0.1796E-01  0.8046E-01
      1.300  0.3006E-01  0.8476E-01
      1.443  0.2050E-01  0.8769E-01
      1.586  0.5877E-01  0.9610E-01
      1.729  0.2298E-01  0.9939E-01
      1.872  0.2448E-02  0.9974E-01
      2.015  0.1142E-01  0.1014E+00
      2.158  0.1415E-01  0.1034E+00
      2.301  0.8118E-01  0.1150E+00
      2.444  0.5519E-01  0.1229E+00
      2.587  0.6431E-02  0.1238E+00
      2.730  0.4792E-01  0.1307E+00
      2.873  0.5166E-01  0.1381E+00
      3.016  0.7320E-01  0.1485E+00
      3.159  0.7376E-01  0.1591E+00
      3.302  0.3520E-02  0.1596E+00
      3.445  0.3260E-02  0.1601E+00
      3.588  0.8400E-02  0.1613E+00
      3.731  0.1431E-01  0.1633E+00
      3.875  0.8056E-01  0.1748E+00
      4.018  0.5488E-01  0.1827E+00
      4.161  0.8761E-02  0.1839E+00
      4.304  0.4956E-01  0.1910E+00
      4.447  0.2851E-01  0.1951E+00
      4.590  0.8730E-01  0.2076E+00
      4.733  0.6618E-01  0.2170E+00
      4.876  0.6983E-02  0.2180E+00
      5.019  0.2467E-01  0.2216E+00
      5.162  0.2854E-01  0.2257E+00
      5.305  0.9123E-01  0.2387E+00
      5.448  0.1321E+00  0.2576E+00
      5.591  0.2559E-01  0.2613E+00
      5.734  0.2336E-01  0.2646E+00
      5.877  0.2649E-01  0.2684E+00
      6.020  0.4255E-01  0.2745E+00
      6.163  0.5480E-01  0.2823E+00
      6.306  0.3765E-02  0.2828E+00
      6.449  0.1663E-01  0.2852E+00
      6.592  0.3100E-01  0.2897E+00
      6.735  0.2752E-01  0.2936E+00
      6.878  0.1088E+00  0.3092E+00
      7.021  0.7586E-01  0.3200E+00
      7.164  0.4888E-01  0.3270E+00
      7.307  0.9318E-01  0.3403E+00
      7.450  0.3394E-01  0.3452E+00
      7.593  0.1114E+00  0.3611E+00
      7.736  0.7059E-01  0.3712E+00
      7.879  0.1603E-01  0.3735E+00
      8.022  0.8136E-03  0.3736E+00
      8.165  0.1460E-01  0.3757E+00
      8.309  0.5991E-01  0.3843E+00
      8.452  0.1276E+00  0.4025E+00
      8.595  0.1119E+00  0.4185E+00
      8.738  0.6055E-01  0.4272E+00
      8.881  0.2316E-01  0.4305E+00
      9.024  0.3258E-01  0.4352E+00
      9.167  0.3489E-01  0.4401E+00
      9.310  0.1386E-01  0.4421E+00
      9.453  0.1283E-01  0.4440E+00
      9.596  0.1891E-01  0.4467E+00
      9.739  0.4335E-01  0.4529E+00
      9.882  0.1516E+00  0.4746E+00
     10.025  0.7971E-01  0.4860E+00
     10.168  0.4228E-01  0.4920E+00
     10.311  0.5408E-01  0.4997E+00
     10.454  0.8714E-01  0.5122E+00
     10.597  0.1393E+00  0.5321E+00
     10.740  0.5036E-01  0.5393E+00
     10.883  0.8839E-02  0.5406E+00
     11.026  0.5985E-01  0.5492E+00
     11.169  0.7267E-01  0.5596E+00
     11.312  0.1578E-01  0.5618E+00
     11.455  0.1740E-01  0.5643E+00
     11.598  0.2958E-01  0.5685E+00
     11.741  0.7632E-01  0.5795E+00
     11.884  0.4994E-01  0.5866E+00
     12.027  0.8752E-01  0.5991E+00
     12.170  0.8567E-01  0.6114E+00
     12.313  0.5694E-02  0.6122E+00
     12.456  0.1170E-01  0.6139E+00
     12.599  0.8031E-01  0.6253E+00
     12.742  0.4856E-01  0.6323E+00
     12.886  0.8627E-01  0.6446E+00
     13.029  0.1184E+00  0.6616E+00
     13.172  0.7948E-01  0.6729E+00
     13.315  0.4775E-01  0.6798E+00
     13.458  0.1575E+00  0.7023E+00
     13.601  0.9554E-01  0.7159E+00
     13.744  0.9408E-02  0.7173E+00
     13.887  0.3251E-01  0.7219E+00
     14.030  0.1431E-01  0.7240E+00
     14.173  0.3002E-01  0.7283E+00
     14.316  0.1007E+00  0.7427E+00
     14.459  0.2983E-01  0.7470E+00
     14.602  0.5994E-01  0.7555E+00
     14.745  0.8951E-01  0.7683E+00
     14.888  0.6205E-01  0.7772E+00
     15.031  0.1133E+00  0.7934E+00
     15.174  0.1006E+00  0.8078E+00
     15.317  0.4816E-01  0.8147E+00
     15.460  0.6927E-01  0.8246E+00
     15.603  0.8477E-01  0.8367E+00
     15.746  0.1006E-01  0.8382E+00
     15.889  0.3077E-02  0.8386E+00
     16.032  0.5121E-01  0.8459E+00
     16.175  0.8293E-01  0.8578E+00
     16.318  0.1056E+00  0.8729E+00
     16.461  0.1820E+00  0.8989E+00
     16.604  0.6517E-01  0.9082E+00
     16.747  0.1555E-01  0.9105E+00
     16.890  0.8751E-01  0.9230E+00
     17.033  0.8967E-01  0.9358E+00
     17.176  0.6531E-01  0.9451E+00
     17.319  0.2857E-01  0.9492E+00
     17.463  0.6175E-01  0.9581E+00
     17.606  0.4053E-01  0.9639E+00
     17.749  0.8323E-01  0.9758E+00
     17.892  0.1852E+00  0.1002E+01
     18.035  0.7648E-01  0.1013E+01
     18.178  0.3518E-01  0.1018E+01
     18.321  0.8566E-01  0.1030E+01
     18.464  0.1082E+00  0.1046E+01
     18.607  0.7522E-01  0.1057E+01
     18.750  0.8965E-01  0.1070E+01
     18.893  0.1475E-01  0.1072E+01
     19.036  0.6179E-01  0.1080E+01
     19.179  0.1310E+00  0.1099E+01
     19.322  0.8527E-01  0.1111E+01
     19.465  0.4242E-01  0.1117E+01
     19.608  0.7516E-01  0.1128E+01
     19.751  0.5594E-01  0.1136E+01
     19.894  0.1682E+00  0.1160E+01
     20.037  0.1398E+00  0.1180E+01
     20.180  0.6058E-01  0.1189E+01
     20.323  0.5506E-01  0.1197E+01
     20.466  0.1191E+00  0.1214E+01
     20.609  0.9084E-01  0.1227E+01
     20.752  0.7940E-01  0.1238E+01
     20.895  0.1091E+00  0.1254E+01
     21.038  0.5228E-01  0.1261E+01
     21.181  0.7919E-01  0.1273E+01
     21.324  0.8709E-01  0.1285E+01
     21.467  0.3077E-01  0.1289E+01
     21.610  0.5090E-01  0.1297E+01
     21.753  0.9016E-01  0.1310E+01
     21.896  0.9476E-01  0.1323E+01
     22.040  0.7635E-01  0.1334E+01
     22.183  0.8556E-01  0.1346E+01
     22.326  0.1202E+00  0.1364E+01
     22.469  0.9965E-01  0.1378E+01
     22.612  0.9732E-01  0.1392E+01
     22.755  0.5329E-01  0.1399E+01
     22.898  0.1048E+00  0.1414E+01
     23.041  0.8010E-01  0.1426E+01
     23.184  0.7060E-01  0.1436E+01
     23.327  0.8570E-01  0.1448E+01
     23.470  0.7337E-01  0.1459E+01
     23.613  0.5096E-01  0.1466E+01
     23.756  0.6621E-01  0.1475E+01
     23.899  0.6390E-01  0.1485E+01
     24.042  0.7684E-01  0.1496E+01
     24.185  0.6540E-01  0.1505E+01
     24.328  0.1286E+00  0.1523E+01
     24.471  0.8307E-01  0.1535E+01
     24.614  0.3228E-01  0.1540E+01
     24.757  0.5339E-01  0.1547E+01
     24.900  0.1302E+00  0.1566E+01
     25.043  0.1105E+00  0.1582E+01
     25.186  0.2583E-01  0.1586E+01
     25.329  0.8946E-01  0.1598E+01
     25.472  0.6855E-01  0.1608E+01
     25.615  0.1231E+00  0.1626E+01
     25.758  0.8143E-01  0.1637E+01
     25.901  0.6802E-01  0.1647E+01
     26.044  0.2877E-01  0.1651E+01
     26.187  0.4396E-01  0.1658E+01
     26.330  0.1202E+00  0.1675E+01
     26.473  0.1300E+00  0.1693E+01
     26.617  0.1889E+00  0.1720E+01
     26.760  0.1831E+00  0.1746E+01
     26.903  0.1076E+00  0.1762E+01
     27.046  0.2198E-01  0.1765E+01
     27.189  0.7947E-01  0.1776E+01
     27.332  0.6199E-01  0.1785E+01
     27.475  0.4617E-01  0.1792E+01
     27.618  0.8934E-01  0.1805E+01
     27.761  0.1274E+00  0.1823E+01
     27.904  0.1373E+00  0.1842E+01
     28.047  0.1134E+00  0.1859E+01
     28.190  0.1085E+00  0.1874E+01
     28.333  0.9539E-01  0.1888E+01
     28.476  0.1086E+00  0.1903E+01
     28.619  0.5180E-01  0.1911E+01
     28.762  0.3563E-01  0.1916E+01
     28.905  0.1442E+00  0.1937E+01
     29.048  0.1709E+00  0.1961E+01
     29.191  0.1087E+00  0.1977E+01
     29.334  0.6130E-01  0.1985E+01
     29.477  0.1023E+00  0.2000E+01
     29.620  0.4662E-01  0.2007E+01
     29.763  0.3956E-01  0.2012E+01
     29.906  0.6399E-01  0.2021E+01
     30.049  0.1119E+00  0.2037E+01
     30.192  0.6331E-01  0.2046E+01
     30.335  0.1033E+00  0.2061E+01
     30.478  0.1146E+00  0.2078E+01
     30.621  0.1480E+00  0.2099E+01
     30.764  0.9435E-01  0.2112E+01
     30.907  0.1520E+00  0.2134E+01
     31.051  0.6722E-01  0.2144E+01
     31.194  0.9871E-01  0.2158E+01
     31.337  0.1366E+00  0.2177E+01
     31.480  0.1047E+00  0.2192E+01
     31.623  0.3361E-01  0.2197E+01
     31.766  0.1137E+00  0.2213E+01
     31.909  0.1187E+00  0.2230E+01
     32.052  0.8822E-01  0.2243E+01
     32.195  0.7486E-01  0.2254E+01
     32.338  0.5856E-01  0.2262E+01
     32.481  0.1478E+00  0.2283E+01
     32.624  0.9993E-01  0.2297E+01
     32.767  0.5686E-01  0.2306E+01
     32.910  0.2708E-01  0.2309E+01
     33.053  0.1648E-01  0.2312E+01
     33.196  0.5733E-01  0.2320E+01
     33.339  0.4162E-01  0.2326E+01
     33.482  0.3962E-01  0.2332E+01
     33.625  0.5921E-01  0.2340E+01
     33.768  0.1278E-01  0.2342E+01
     33.911  0.5285E-02  0.2343E+01
     34.054  0.2417E-01  0.2346E+01
     34.197  0.8119E-01  0.2358E+01
     34.340  0.1025E+00  0.2372E+01
     34.483  0.5715E-01  0.2381E+01
     34.626  0.9389E-02  0.2382E+01
     34.769  0.8489E-04  0.2382E+01
     34.912  0.3843E-05  0.2382E+01
     35.055  0.1950E-02  0.2382E+01
     35.198  0.2838E-01  0.2386E+01
     35.341  0.2005E-01  0.2389E+01
     35.484  0.1254E-01  0.2391E+01
     35.628  0.1216E-01  0.2393E+01
     35.771  0.5566E-03  0.2393E+01
     35.914  0.7326E-06  0.2393E+01
     36.057  0.1464E-03  0.2393E+01
     36.200  0.1150E-01  0.2394E+01
     36.343  0.3379E-01  0.2399E+01
     36.486  0.4969E-02  0.2400E+01
     36.629  0.2352E-04  0.2400E+01
     36.772  0.2439E-08  0.2400E+01
     36.915  0.4792E-14  0.2400E+01
     37.058  0.0000E+00  0.2400E+01
     37.201  0.0000E+00  0.2400E+01
     37.344  0.0000E+00  0.2400E+01
     37.487  0.0000E+00  0.2400E+01
     37.630  0.0000E+00  0.2400E+01
     37.773  0.0000E+00  0.2400E+01
     37.916  0.0000E+00  0.2400E+01
     38.059  0.0000E+00  0.2400E+01
     38.202  0.0000E+00  0.2400E+01
