    1    1    5    1
  0.1045009E+02  0.2454021E-09  0.2454021E-09  0.2454021E-09  0.5000000E-15
  1.000000000000000E-004
  CAR 
 fcc Si                                  
      4     56      6
 
  0.0000000E+00  0.0000000E+00  0.0000000E+00  0.7513148E-03
    1       -2.756931
    2       28.526527
    3       28.526615
    4       28.526615
    5       30.741511
    6       30.741557
 
  0.9090909E-01  0.0000000E+00  0.0000000E+00  0.6010518E-02
    1       -2.458021
    2       24.807126
    3       27.754605
    4       27.754744
    5       31.801588
    6       31.967453
 
  0.1818182E+00  0.0000000E+00  0.0000000E+00  0.6010518E-02
    1       -1.564879
    2       20.013166
    3       26.841169
    4       26.841261
    5       31.681100
    6       32.987600
 
  0.2727273E+00  0.0000000E+00  0.0000000E+00  0.6010518E-02
    1       -0.087506
    2       15.474383
    3       26.296404
    4       26.296610
    5       30.918601
    6       30.918912
 
  0.3636364E+00  0.0000000E+00  0.0000000E+00  0.6010518E-02
    1        1.959302
    2       11.351303
    3       26.247082
    4       26.247309
    5       29.050323
    6       29.050587
 
  0.4545455E+00  0.0000000E+00  0.0000000E+00  0.6010518E-02
    1        4.545476
    2        7.728216
    3       26.686853
    4       26.687095
    5       27.622452
    6       27.622706
 
  0.9090909E-01  0.9090909E-01  0.0000000E+00  0.4507889E-02
    1       -2.358217
    2       26.127152
    3       26.127204
    4       26.562904
    5       29.994622
    6       33.707108
 
  0.1818182E+00  0.9090909E-01  0.0000000E+00  0.1803156E-01
    1       -1.663855
    2       21.745853
    3       24.907763
    4       26.792923
    5       30.273312
    6       31.181971
 
  0.2727273E+00  0.9090909E-01  0.0000000E+00  0.1803156E-01
    1       -0.381982
    2       17.156106
    3       24.180252
    4       26.425877
    5       28.052561
    6       33.158114
 
  0.3636364E+00  0.9090909E-01  0.0000000E+00  0.1803156E-01
    1        1.473986
    2       12.914127
    3       23.948458
    4       25.867086
    5       26.355925
    6       32.350199
 
  0.4545455E+00  0.9090909E-01  0.0000000E+00  0.1803156E-01
    1        3.881893
    2        9.122654
    3       24.218195
    4       24.251605
    5       26.636185
    6       30.799864
 
 -0.4545455E+00  0.9090909E-01  0.0000000E+00  0.1803156E-01
    1        5.738093
    2        6.917518
    3       23.124003
    4       24.992769
    5       27.465444
    6       29.716354
 
 -0.3636364E+00  0.9090909E-01  0.0000000E+00  0.1803156E-01
    1        3.020283
    2       10.325678
    3       22.508705
    4       26.262647
    5       28.791277
    6       29.115027
 
 -0.2727273E+00  0.9090909E-01  0.0000000E+00  0.1803156E-01
    1        0.792489
    2       14.262912
    3       22.421639
    4       27.981086
    5       28.996304
    6       30.593609
 
 -0.1818182E+00  0.9090909E-01  0.0000000E+00  0.1803156E-01
    1       -0.873837
    2       18.605493
    3       22.883488
    4       29.186650
    5       30.247288
    6       32.750088
 
 -0.9090909E-01  0.9090909E-01  0.0000000E+00  0.9015778E-02
    1       -1.961153
    2       22.826834
    3       24.253825
    4       29.358785
    5       31.103967
    6       32.706017
 
  0.1818182E+00  0.1818182E+00  0.0000000E+00  0.4507889E-02
    1       -1.169694
    2       23.483304
    3       23.483353
    4       23.683423
    5       27.509758
    6       28.398129
 
  0.2727273E+00  0.1818182E+00  0.0000000E+00  0.1803156E-01
    1       -0.087465
    2       19.237204
    3       22.569708
    4       24.375491
    5       24.809318
    6       28.996641
 
  0.3636364E+00  0.1818182E+00  0.0000000E+00  0.1803156E-01
    1        1.570220
    2       14.959059
    3       22.164863
    4       22.258878
    5       24.625965
    6       31.672462
 
  0.4545455E+00  0.1818182E+00  0.0000000E+00  0.1803156E-01
    1        3.784474
    2       11.051397
    3       20.405898
    4       22.258723
    5       24.866554
    6       34.418933
 
 -0.4545455E+00  0.1818182E+00  0.0000000E+00  0.1803156E-01
    1        6.478870
    2        7.668441
    3       19.075504
    4       22.857463
    5       25.574368
    6       33.203131
 
 -0.3636364E+00  0.1818182E+00  0.0000000E+00  0.1803156E-01
    1        4.644252
    2        9.828069
    3       18.301642
    4       23.962560
    5       26.799174
    6       32.443657
 
 -0.2727273E+00  0.1818182E+00  0.0000000E+00  0.1803156E-01
    1        2.249084
    2       13.498560
    3       18.149925
    4       25.573799
    5       28.513582
    6       32.136557
 
 -0.1818182E+00  0.1818182E+00  0.0000000E+00  0.9015778E-02
    1        0.401886
    2       16.989066
    3       19.160220
    4       27.654615
    5       30.613430
    6       31.676430
 
  0.2727273E+00  0.2727273E+00  0.0000000E+00  0.4507889E-02
    1        0.791896
    2       21.365707
    3       21.479065
    4       21.479108
    5       21.562669
    6       26.721358
 
  0.3636364E+00  0.2727273E+00  0.0000000E+00  0.1803156E-01
    1        2.245857
    2       17.399666
    3       18.988280
    4       20.896322
    5       22.746967
    6       27.522574
 
  0.4545455E+00  0.2727273E+00  0.0000000E+00  0.1803156E-01
    1        4.255308
    2       13.466095
    3       16.924650
    4       20.814849
    5       23.192881
    6       30.497333
 
 -0.4545455E+00  0.2727273E+00  0.0000000E+00  0.1803156E-01
    1        6.777549
    2        9.931305
    3       15.408300
    4       21.244861
    5       23.822493
    6       34.265545
 
 -0.3636364E+00  0.2727273E+00  0.0000000E+00  0.1803156E-01
    1        6.806920
    2        9.806804
    3       14.522640
    4       22.181795
    5       24.918073
    6       36.251649
 
 -0.2727273E+00  0.2727273E+00  0.0000000E+00  0.9015778E-02
    1        4.264573
    2       12.566960
    3       14.904876
    4       23.622975
    5       26.504875
    6       35.485233
 
  0.3636364E+00  0.3636364E+00  0.0000000E+00  0.4507889E-02
    1        3.490454
    2       16.138886
    3       19.777739
    4       20.139236
    5       20.139277
    6       25.447052
 
  0.4545455E+00  0.3636364E+00  0.0000000E+00  0.1803156E-01
    1        5.279268
    2       13.845745
    3       16.362137
    4       19.891367
    5       21.613938
    6       26.548360
 
 -0.4545455E+00  0.3636364E+00  0.0000000E+00  0.1803156E-01
    1        7.533776
    2       12.008124
    3       12.986529
    4       20.145716
    5       22.444947
    6       29.865190
 
 -0.3636364E+00  0.3636364E+00  0.0000000E+00  0.9015778E-02
    1        9.449159
    2        9.635533
    3       11.979738
    4       20.912035
    5       23.464485
    6       33.996796
 
  0.4545455E+00  0.4545455E+00  0.0000000E+00  0.4507889E-02
    1        6.791540
    2       11.450751
    3       18.982407
    4       19.473045
    5       19.473085
    6       24.750473
 
 -0.4545455E+00  0.4545455E+00  0.0000000E+00  0.9015778E-02
    1        8.170299
    2       10.268746
    3       15.983919
    4       19.558208
    5       21.237833
    6       26.203598
 
  0.2727273E+00  0.1818182E+00  0.9090909E-01  0.1803156E-01
    1       -0.775389
    2       19.928509
    3       21.715584
    4       27.777161
    5       27.856237
    6       30.548478
 
  0.3636364E+00  0.1818182E+00  0.9090909E-01  0.3606311E-01
    1        0.695061
    2       16.061156
    3       20.530034
    4       25.317230
    5       28.258213
    6       32.390574
 
  0.4545455E+00  0.1818182E+00  0.9090909E-01  0.3606311E-01
    1        2.730980
    2       12.053739
    3       20.367874
    4       23.326693
    5       28.397215
    6       31.385630
 
 -0.4545455E+00  0.1818182E+00  0.9090909E-01  0.3606311E-01
    1        5.301376
    2        8.466639
    3       20.737231
    4       21.884232
    5       28.876911
    6       29.973876
 
  0.3636364E+00  0.2727273E+00  0.9090909E-01  0.1803156E-01
    1        1.181528
    2       17.736932
    3       19.630115
    4       22.013157
    5       25.840828
    6       28.976839
 
  0.4545455E+00  0.2727273E+00  0.9090909E-01  0.3606311E-01
    1        3.017175
    2       14.220844
    3       18.648888
    4       19.891450
    5       26.669075
    6       31.240910
 
 -0.4545455E+00  0.2727273E+00  0.9090909E-01  0.3606311E-01
    1        5.394163
    2       10.561864
    3       17.880971
    4       19.155240
    5       27.195677
    6       33.502362
 
 -0.3636364E+00  0.2727273E+00  0.9090909E-01  0.3606311E-01
    1        7.226826
    2        8.382827
    3       16.825863
    4       19.840559
    5       28.065805
    6       32.537870
 
 -0.2727273E+00  0.2727273E+00  0.9090909E-01  0.3606311E-01
    1        4.548461
    2       11.651273
    3       16.330699
    4       21.148266
    5       29.391807
    6       31.821692
 
 -0.1818182E+00  0.2727273E+00  0.9090909E-01  0.1803156E-01
    1        2.345052
    2       14.777682
    3       17.043523
    4       22.987707
    5       30.817615
    6       31.065728
 
  0.4545455E+00  0.3636364E+00  0.9090909E-01  0.1803156E-01
    1        3.873411
    2       16.257578
    3       16.419530
    4       18.442154
    5       24.388479
    6       27.770343
 
 -0.4545455E+00  0.3636364E+00  0.9090909E-01  0.3606311E-01
    1        6.033758
    2       13.057332
    3       14.649545
    4       17.831817
    5       25.607488
    6       30.367494
 
 -0.3636364E+00  0.3636364E+00  0.9090909E-01  0.3606311E-01
    1        8.611723
    2        9.818727
    3       13.406766
    4       18.341330
    5       26.519858
    6       34.158942
 
 -0.2727273E+00  0.3636364E+00  0.9090909E-01  0.1803156E-01
    1        6.900319
    2       11.099922
    3       13.411065
    4       19.475273
    5       27.756413
    6       35.180227
 
 -0.4545455E+00  0.4545455E+00  0.9090909E-01  0.1803156E-01
    1        7.163806
    2       11.809785
    3       15.527083
    4       17.675929
    5       23.667935
    6       27.121739
 
 -0.3636364E+00  0.4545455E+00  0.9090909E-01  0.1803156E-01
    1        8.899478
    2       10.956076
    3       12.856558
    4       17.452080
    5       25.262093
    6       30.066380
 
 -0.4545455E+00  0.3636364E+00  0.1818182E+00  0.1803156E-01
    1        5.016742
    2       13.301969
    3       15.483074
    4       17.834007
    5       29.501475
    6       31.761050
 
 -0.3636364E+00  0.3636364E+00  0.1818182E+00  0.3606311E-01
    1        7.526566
    2       10.536661
    3       15.011333
    4       16.452674
    5       30.828178
    6       32.030640
 
 -0.3636364E+00  0.4545455E+00  0.1818182E+00  0.1803156E-01
    1        8.275267
    2       12.574079
    3       12.792239
    4       15.183992
    5       28.824418
    6       31.352252
 
 -0.2727273E+00  0.4545455E+00  0.1818182E+00  0.1803156E-01
    1       10.088373
    2       10.366809
    3       12.527990
    4       15.136600
    5       30.555678
    6       34.302800
