<?xml version="1.0" encoding="ISO-8859-1"?>
<modeling>
 <generator>
  <i name="program" type="string">vasp </i>
  <i name="version" type="string">5.3.5  </i>
  <i name="subversion" type="string">31Mar14 (build Feb  5 2015 19:39:53) complex                          parallel </i>
  <i name="platform" type="string">HPCUofA </i>
  <i name="date" type="string">2017 11 08 </i>
  <i name="time" type="string">15:13:59 </i>
 </generator>
 <incar>
  <i type="string" name="SYSTEM"> fcc Si</i>
  <i type="int" name="ISTART">     0</i>
  <i type="string" name="PREC">normal</i>
  <i type="int" name="ICHARG">     2</i>
  <i type="int" name="IBRION">     2</i>
  <i type="int" name="NSW">     5</i>
  <i type="int" name="ISIF">     2</i>
  <i name="ENCUT">    240.00000000</i>
  <i type="int" name="ISMEAR">     0</i>
  <i name="SIGMA">      0.10000000</i>
 </incar>
 <kpoints>
  <generation param="Monkhorst-Pack">
   <v type="int" name="divisions">      11       11       11 </v>
   <v name="usershift">      0.00000000       0.00000000       0.00000000 </v>
   <v name="genvec1">      0.09090909       0.00000000       0.00000000 </v>
   <v name="genvec2">      0.00000000       0.09090909       0.00000000 </v>
   <v name="genvec3">      0.00000000       0.00000000       0.09090909 </v>
   <v name="shift">      0.00000000       0.00000000       0.00000000 </v>
  </generation>
  <varray name="kpointlist" >
   <v>       0.00000000       0.00000000       0.00000000 </v>
   <v>       0.09090909       0.00000000       0.00000000 </v>
   <v>       0.18181818       0.00000000       0.00000000 </v>
   <v>       0.27272727       0.00000000       0.00000000 </v>
   <v>       0.36363636       0.00000000       0.00000000 </v>
   <v>       0.45454545       0.00000000       0.00000000 </v>
   <v>       0.09090909       0.09090909       0.00000000 </v>
   <v>       0.18181818       0.09090909       0.00000000 </v>
   <v>       0.27272727       0.09090909       0.00000000 </v>
   <v>       0.36363636       0.09090909       0.00000000 </v>
   <v>       0.45454545       0.09090909       0.00000000 </v>
   <v>      -0.45454545       0.09090909       0.00000000 </v>
   <v>      -0.36363636       0.09090909       0.00000000 </v>
   <v>      -0.27272727       0.09090909       0.00000000 </v>
   <v>      -0.18181818       0.09090909       0.00000000 </v>
   <v>      -0.09090909       0.09090909       0.00000000 </v>
   <v>       0.18181818       0.18181818       0.00000000 </v>
   <v>       0.27272727       0.18181818       0.00000000 </v>
   <v>       0.36363636       0.18181818       0.00000000 </v>
   <v>       0.45454545       0.18181818       0.00000000 </v>
   <v>      -0.45454545       0.18181818       0.00000000 </v>
   <v>      -0.36363636       0.18181818       0.00000000 </v>
   <v>      -0.27272727       0.18181818       0.00000000 </v>
   <v>      -0.18181818       0.18181818       0.00000000 </v>
   <v>       0.27272727       0.27272727       0.00000000 </v>
   <v>       0.36363636       0.27272727       0.00000000 </v>
   <v>       0.45454545       0.27272727       0.00000000 </v>
   <v>      -0.45454545       0.27272727       0.00000000 </v>
   <v>      -0.36363636       0.27272727       0.00000000 </v>
   <v>      -0.27272727       0.27272727       0.00000000 </v>
   <v>       0.36363636       0.36363636       0.00000000 </v>
   <v>       0.45454545       0.36363636       0.00000000 </v>
   <v>      -0.45454545       0.36363636       0.00000000 </v>
   <v>      -0.36363636       0.36363636       0.00000000 </v>
   <v>       0.45454545       0.45454545       0.00000000 </v>
   <v>      -0.45454545       0.45454545       0.00000000 </v>
   <v>       0.27272727       0.18181818       0.09090909 </v>
   <v>       0.36363636       0.18181818       0.09090909 </v>
   <v>       0.45454545       0.18181818       0.09090909 </v>
   <v>      -0.45454545       0.18181818       0.09090909 </v>
   <v>       0.36363636       0.27272727       0.09090909 </v>
   <v>       0.45454545       0.27272727       0.09090909 </v>
   <v>      -0.45454545       0.27272727       0.09090909 </v>
   <v>      -0.36363636       0.27272727       0.09090909 </v>
   <v>      -0.27272727       0.27272727       0.09090909 </v>
   <v>      -0.18181818       0.27272727       0.09090909 </v>
   <v>       0.45454545       0.36363636       0.09090909 </v>
   <v>      -0.45454545       0.36363636       0.09090909 </v>
   <v>      -0.36363636       0.36363636       0.09090909 </v>
   <v>      -0.27272727       0.36363636       0.09090909 </v>
   <v>      -0.45454545       0.45454545       0.09090909 </v>
   <v>      -0.36363636       0.45454545       0.09090909 </v>
   <v>      -0.45454545       0.36363636       0.18181818 </v>
   <v>      -0.36363636       0.36363636       0.18181818 </v>
   <v>      -0.36363636       0.45454545       0.18181818 </v>
   <v>      -0.27272727       0.45454545       0.18181818 </v>
  </varray>
  <varray name="weights" >
   <v>       0.00075131 </v>
   <v>       0.00601052 </v>
   <v>       0.00601052 </v>
   <v>       0.00601052 </v>
   <v>       0.00601052 </v>
   <v>       0.00601052 </v>
   <v>       0.00450789 </v>
   <v>       0.01803156 </v>
   <v>       0.01803156 </v>
   <v>       0.01803156 </v>
   <v>       0.01803156 </v>
   <v>       0.01803156 </v>
   <v>       0.01803156 </v>
   <v>       0.01803156 </v>
   <v>       0.01803156 </v>
   <v>       0.00901578 </v>
   <v>       0.00450789 </v>
   <v>       0.01803156 </v>
   <v>       0.01803156 </v>
   <v>       0.01803156 </v>
   <v>       0.01803156 </v>
   <v>       0.01803156 </v>
   <v>       0.01803156 </v>
   <v>       0.00901578 </v>
   <v>       0.00450789 </v>
   <v>       0.01803156 </v>
   <v>       0.01803156 </v>
   <v>       0.01803156 </v>
   <v>       0.01803156 </v>
   <v>       0.00901578 </v>
   <v>       0.00450789 </v>
   <v>       0.01803156 </v>
   <v>       0.01803156 </v>
   <v>       0.00901578 </v>
   <v>       0.00450789 </v>
   <v>       0.00901578 </v>
   <v>       0.01803156 </v>
   <v>       0.03606311 </v>
   <v>       0.03606311 </v>
   <v>       0.03606311 </v>
   <v>       0.01803156 </v>
   <v>       0.03606311 </v>
   <v>       0.03606311 </v>
   <v>       0.03606311 </v>
   <v>       0.03606311 </v>
   <v>       0.01803156 </v>
   <v>       0.01803156 </v>
   <v>       0.03606311 </v>
   <v>       0.03606311 </v>
   <v>       0.01803156 </v>
   <v>       0.01803156 </v>
   <v>       0.01803156 </v>
   <v>       0.01803156 </v>
   <v>       0.03606311 </v>
   <v>       0.01803156 </v>
   <v>       0.01803156 </v>
  </varray>
 </kpoints>
 <parameters>
  <separator name="general" >
   <i type="string" name="SYSTEM">fcc Si</i>
   <i type="logical" name="LCOMPAT"> F  </i>
  </separator>
  <separator name="electronic" >
   <i type="string" name="PREC">normal</i>
   <i name="ENMAX">    240.00000000</i>
   <i name="ENAUG">    322.06900000</i>
   <i name="EDIFF">      0.00010000</i>
   <i type="int" name="IALGO">    38</i>
   <i type="int" name="IWAVPR">    11</i>
   <i type="int" name="NBANDS">     6</i>
   <i name="NELECT">      4.00000000</i>
   <i type="int" name="TURBO">     0</i>
   <i type="int" name="IRESTART">     0</i>
   <i type="int" name="NREBOOT">     0</i>
   <i type="int" name="NMIN">     0</i>
   <i name="EREF">      0.00000000</i>
   <separator name="electronic smearing" >
    <i type="int" name="ISMEAR">     0</i>
    <i name="SIGMA">      0.10000000</i>
    <i name="KSPACING">      0.50000000</i>
    <i type="logical" name="KGAMMA"> T  </i>
   </separator>
   <separator name="electronic projectors" >
    <i type="logical" name="LREAL"> F  </i>
    <v name="ROPT">      0.00000000</v>
    <i type="int" name="LMAXPAW">  -100</i>
    <i type="int" name="LMAXMIX">     2</i>
    <i type="logical" name="NLSPLINE"> F  </i>
   </separator>
   <separator name="electronic startup" >
    <i type="int" name="ISTART">     0</i>
    <i type="int" name="ICHARG">     2</i>
    <i type="int" name="INIWAV">     1</i>
   </separator>
   <separator name="electronic spin" >
    <i type="int" name="ISPIN">     1</i>
    <i type="logical" name="LNONCOLLINEAR"> F  </i>
    <v name="MAGMOM">      1.00000000</v>
    <i name="NUPDOWN">     -1.00000000</i>
    <i type="logical" name="LSORBIT"> F  </i>
    <v name="SAXIS">      0.00000000      0.00000000      1.00000000</v>
    <i type="logical" name="LSPIRAL"> F  </i>
    <v name="QSPIRAL">      0.00000000      0.00000000      0.00000000</v>
    <i type="logical" name="LZEROZ"> F  </i>
   </separator>
   <separator name="electronic exchange-correlation" >
    <i type="logical" name="LASPH"> F  </i>
    <i type="logical" name="LMETAGGA"> F  </i>
   </separator>
   <separator name="electronic convergence" >
    <i type="int" name="NELM">    60</i>
    <i type="int" name="NELMDL">    -5</i>
    <i type="int" name="NELMIN">     2</i>
    <i name="ENINI">    240.00000000</i>
    <separator name="electronic convergence detail" >
     <i type="logical" name="LDIAG"> T  </i>
     <i type="logical" name="LSUBROT"> F  </i>
     <i name="WEIMIN">      0.00100000</i>
     <i name="EBREAK">      0.00000417</i>
     <i name="DEPER">      0.30000000</i>
     <i type="int" name="NRMM">     4</i>
     <i name="TIME">      0.40000000</i>
    </separator>
   </separator>
   <separator name="electronic mixer" >
    <i name="AMIX">      0.40000000</i>
    <i name="BMIX">      1.00000000</i>
    <i name="AMIN">      0.10000000</i>
    <i name="AMIX_MAG">      1.60000000</i>
    <i name="BMIX_MAG">      1.00000000</i>
    <separator name="electronic mixer details" >
     <i type="int" name="IMIX">     4</i>
     <i type="int" name="MAXMIX">   -45</i>
     <i name="WC">    100.00000000</i>
     <i type="int" name="INIMIX">     1</i>
     <i type="int" name="MIXPRE">     1</i>
     <i type="int" name="MREMOVE">     5</i>
    </separator>
   </separator>
   <separator name="electronic dipolcorrection" >
    <i type="logical" name="LDIPOL"> F  </i>
    <i type="logical" name="LMONO"> F  </i>
    <i type="int" name="IDIPOL">     0</i>
    <i name="EPSILON">      1.00000000</i>
    <v name="DIPOL">   -100.00000000   -100.00000000   -100.00000000</v>
    <i name="EFIELD">      0.00000000</i>
   </separator>
  </separator>
  <separator name="grids" >
   <i type="int" name="NGX">    10</i>
   <i type="int" name="NGY">    10</i>
   <i type="int" name="NGZ">    10</i>
   <i type="int" name="NGXF">    20</i>
   <i type="int" name="NGYF">    20</i>
   <i type="int" name="NGZF">    20</i>
   <i type="logical" name="ADDGRID"> F  </i>
  </separator>
  <separator name="ionic" >
   <i type="int" name="NSW">     5</i>
   <i type="int" name="IBRION">     2</i>
   <i type="int" name="ISIF">     2</i>
   <i name="PSTRESS">      0.00000000</i>
   <i name="EDIFFG">      0.00100000</i>
   <i type="int" name="NFREE">     1</i>
   <i name="POTIM">      0.50000000</i>
   <i name="SMASS">     -3.00000000</i>
   <i name="SCALEE">      1.00000000</i>
  </separator>
  <separator name="ionic md" >
   <i name="TEBEG">      0.00010000</i>
   <i name="TEEND">      0.00010000</i>
   <i type="int" name="NBLOCK">     1</i>
   <i type="int" name="KBLOCK">     5</i>
   <i type="int" name="NPACO">   256</i>
   <i name="APACO">     16.00000000</i>
  </separator>
  <separator name="symmetry" >
   <i type="int" name="ISYM">     2</i>
   <i name="SYMPREC">      0.00001000</i>
  </separator>
  <separator name="dos" >
   <i type="logical" name="LORBIT"> F  </i>
   <v name="RWIGS">     -1.00000000</v>
   <i type="int" name="NEDOS">   301</i>
   <i name="EMIN">     10.00000000</i>
   <i name="EMAX">    -10.00000000</i>
   <i name="EFERMI">      0.00000000</i>
  </separator>
  <separator name="writing" >
   <i type="int" name="NWRITE">     2</i>
   <i type="logical" name="LWAVE"> T  </i>
   <i type="logical" name="LCHARG"> T  </i>
   <i type="logical" name="LPARD"> F  </i>
   <i type="logical" name="LVTOT"> F  </i>
   <i type="logical" name="LVHAR"> F  </i>
   <i type="logical" name="LELF"> F  </i>
   <i type="logical" name="LOPTICS"> F  </i>
   <v name="STM">      0.00000000      0.00000000      0.00000000      0.00000000      0.00000000      0.00000000      0.00000000</v>
  </separator>
  <separator name="performance" >
   <i type="int" name="NPAR">     1</i>
   <i type="int" name="NSIM">     4</i>
   <i type="int" name="NBLK">    -1</i>
   <i type="logical" name="LPLANE"> T  </i>
   <i type="logical" name="LSCALAPACK"> T  </i>
   <i type="logical" name="LSCAAWARE"> F  </i>
   <i type="logical" name="LSCALU"> F  </i>
   <i type="logical" name="LASYNC"> F  </i>
   <i type="logical" name="LORBITALREAL"> F  </i>
  </separator>
  <separator name="miscellaneous" >
   <i type="int" name="IDIOT">     3</i>
   <i type="logical" name="LMUSIC"> F  </i>
   <v name="POMASS">     28.08500000</v>
   <v name="DARWINR">      0.00000000</v>
   <v name="DARWINV">      1.00000000</v>
   <i type="logical" name="LCORR"> T  </i>
  </separator>
  <i type="logical" name="GGA_COMPAT"> T  </i>
  <i type="logical" name="LBERRY"> F  </i>
  <i type="int" name="ICORELEVEL">     0</i>
  <i type="logical" name="LDAU"> F  </i>
  <i type="int" name="I_CONSTRAINED_M">     0</i>
  <separator name="electronic exchange-correlation" >
   <i type="string" name="GGA">--</i>
   <i type="int" name="VOSKOWN">     0</i>
   <i type="logical" name="LHFCALC"> F  </i>
   <i type="string" name="PRECFOCK"></i>
   <i type="logical" name="LSYMGRAD"> F  </i>
   <i type="logical" name="LHFONE"> F  </i>
   <i type="logical" name="LRHFCALC"> F  </i>
   <i type="logical" name="LTHOMAS"> F  </i>
   <i type="logical" name="LMODELHF"> F  </i>
   <i name="ENCUT4O">     -1.00000000</i>
   <i type="int" name="EXXOEP">     0</i>
   <i type="int" name="FOURORBIT">     0</i>
   <i name="AEXX">      0.00000000</i>
   <i name="HFALPHA">      0.00000000</i>
   <i name="MCALPHA">      0.00000000</i>
   <i name="ALDAX">      1.00000000</i>
   <i name="AGGAX">      1.00000000</i>
   <i name="ALDAC">      1.00000000</i>
   <i name="AGGAC">      1.00000000</i>
   <i type="int" name="NKREDX">     1</i>
   <i type="int" name="NKREDY">     1</i>
   <i type="int" name="NKREDZ">     1</i>
   <i type="logical" name="SHIFTRED"> F  </i>
   <i type="logical" name="ODDONLY"> F  </i>
   <i type="logical" name="EVENONLY"> F  </i>
   <i type="int" name="LMAXFOCK">     0</i>
   <i type="int" name="NMAXFOCKAE">     0</i>
   <i type="logical" name="LFOCKAEDFT"> F  </i>
   <i name="HFSCREEN">      0.00000000</i>
   <i name="HFSCREENC">      0.00000000</i>
   <i type="int" name="NBANDSGWLOW">     0</i>
  </separator>
  <separator name="vdW DFT" >
   <i type="logical" name="LUSE_VDW"> F  </i>
   <i name="Zab_VDW">     -0.84910000</i>
   <i name="PARAM1">      0.12340000</i>
   <i name="PARAM2">      1.00000000</i>
   <i name="PARAM3">      0.00000000</i>
  </separator>
  <separator name="model GW" >
   <i type="int" name="MODEL_GW">     0</i>
   <i name="MODEL_EPS0">      6.27005278</i>
   <i name="MODEL_ALPHA">      1.00000000</i>
  </separator>
  <separator name="linear response parameters" >
   <i type="logical" name="LEPSILON"> F  </i>
   <i type="logical" name="LRPA"> F  </i>
   <i type="logical" name="LNABLA"> F  </i>
   <i type="logical" name="LVEL"> F  </i>
   <i type="int" name="KINTER">     0</i>
   <i name="CSHIFT">      0.10000000</i>
   <i name="OMEGAMAX">     -1.00000000</i>
   <i name="DEG_THRESHOLD">      0.00200000</i>
  </separator>
  <separator name="orbital magnetization" >
   <i type="logical" name="NUCIND"> F  </i>
   <v name="MAGPOS">      0.00000000      0.00000000      0.00000000</v>
   <i type="logical" name="LNICSALL"> T  </i>
   <i type="logical" name="ORBITALMAG"> F  </i>
   <i type="logical" name="LMAGBLOCH"> F  </i>
   <i type="logical" name="LCHIMAG"> F  </i>
   <i type="logical" name="LGAUGE"> T  </i>
   <i type="int" name="MAGATOM">     0</i>
   <v name="MAGDIPOL">      0.00000000      0.00000000      0.00000000</v>
   <v name="AVECCONST">      0.00000000      0.00000000      0.00000000</v>
  </separator>
  <separator name="response functions" >
   <i type="logical" name="LADDER"> F  </i>
   <i type="logical" name="LFXC"> F  </i>
   <i type="logical" name="LHARTREE"> T  </i>
   <i type="int" name="IBSE">     0</i>
   <i type="logical" name="LTCTE"> F  </i>
   <i type="logical" name="LTETE"> F  </i>
   <i type="logical" name="LTRIPLET"> F  </i>
   <i type="logical" name="LFXCEPS"> F  </i>
   <i type="logical" name="LFXHEG"> F  </i>
   <i type="logical" name="L2ORDER"> F  </i>
   <i type="logical" name="LUSEW"> F  </i>
   <i name="ENCUTGW">     -2.00000000</i>
   <i name="ENCUTGWSOFT">     -2.00000000</i>
   <i name="ENCUTLF">     -1.00000000</i>
   <i type="int" name="LMAXMP2">    -1</i>
   <i name="SCISSOR">      0.00000000</i>
   <i type="int" name="NOMEGA">     0</i>
   <i type="int" name="NOMEGAR">     0</i>
   <i type="int" name="NBANDSGW">    -1</i>
   <i type="int" name="NBANDSO">    -1</i>
   <i type="int" name="NBANDSV">    -1</i>
   <i type="int" name="NELM">     1</i>
   <i type="int" name="DIM">     3</i>
   <i type="int" name="ANTIRES">     0</i>
   <i name="OMEGAMAX">    -30.00000000</i>
   <i name="OMEGAMIN">    -30.00000000</i>
   <i name="OMEGATL">   -200.00000000</i>
   <i type="int" name="OMEGAGRID">     0</i>
   <i name="CSHIFT">     -0.10000000</i>
   <i type="logical" name="SELFENERGY"> F  </i>
   <i type="logical" name="LSPECTRAL"> F  </i>
   <i type="logical" name="ODDONLYGW"> F  </i>
   <i type="logical" name="EVENONLYGW"> F  </i>
   <i type="int" name="NKREDLFX">     1</i>
   <i type="int" name="NKREDLFY">     1</i>
   <i type="int" name="NKREDLFZ">     1</i>
   <i type="int" name="MAXMEM">  1800</i>
   <i type="int" name="TELESCOPE">     0</i>
   <i type="int" name="TAUPAR">     1</i>
  </separator>
  <separator name="External order field" >
   <i name="OFIELD_KAPPA">      0.00000000</i>
   <v name="OFIELD_K">      0.00000000      0.00000000      0.00000000</v>
   <i name="OFIELD_Q6_NEAR">      0.00000000</i>
   <i name="OFIELD_Q6_FAR">      0.00000000</i>
   <i name="OFIELD_A">      0.00000000</i>
  </separator>
 </parameters>
 <atominfo>
  <atoms>       1 </atoms>
  <types>       1 </types>
  <array name="atoms" >
   <dimension dim="1">ion</dimension>
   <field type="string">element</field>
   <field type="int">atomtype</field>
   <set>
    <rc><c>Si</c><c>   1</c></rc>
   </set>
  </array>
  <array name="atomtypes" >
   <dimension dim="1">type</dimension>
   <field type="int">atomspertype</field>
   <field type="string">element</field>
   <field>mass</field>
   <field>valence</field>
   <field type="string">pseudopotential</field>
   <set>
    <rc><c>   1</c><c>Si</c><c>     28.08500000</c><c>      4.00000000</c><c> PAW_PBE Si 05Jan2001                   </c></rc>
   </set>
  </array>
 </atominfo>
 <structure name="initialpos" >
  <crystal>
   <varray name="basis" >
    <v>       1.73525505       1.73525505       0.00000000 </v>
    <v>       0.00000000       1.73525505       1.73525505 </v>
    <v>       1.73525505       0.00000000       1.73525505 </v>
   </varray>
   <i name="volume">     10.45008797 </i>
   <varray name="rec_basis" >
    <v>       0.28814208       0.28814208      -0.28814208 </v>
    <v>      -0.28814208       0.28814208       0.28814208 </v>
    <v>       0.28814208      -0.28814208       0.28814208 </v>
   </varray>
  </crystal>
  <varray name="positions" >
   <v>       0.00000000       0.00000000       0.00000000 </v>
  </varray>
 </structure>
 <calculation>
  <scstep>
   <time name="dav">    0.06    0.06</time>
   <time name="total">    0.07    0.07</time>
   <energy>
    <i name="alphaZ">      3.22132010 </i>
    <i name="ewald">   -152.18751399 </i>
    <i name="hartreedc">     -0.19283471 </i>
    <i name="XCdc">     -7.86680736 </i>
    <i name="pawpsdc">     32.97760406 </i>
    <i name="pawaedc">    -15.38426339 </i>
    <i name="eentropy">     -0.00123970 </i>
    <i name="bandstr">     32.98745819 </i>
    <i name="atom">    103.06077658 </i>
    <i name="e_fr_energy">     -3.38550022 </i>
    <i name="e_wo_entrp">     -3.38426052 </i>
    <i name="e_0_energy">     -3.38488037 </i>
   </energy>
  </scstep>
  <scstep>
   <time name="dav">    0.08    0.08</time>
   <time name="total">    0.08    0.08</time>
   <energy>
    <i name="e_fr_energy">     -4.37701401 </i>
    <i name="e_wo_entrp">     -4.37533916 </i>
    <i name="e_0_energy">     -4.37617658 </i>
   </energy>
  </scstep>
  <scstep>
   <time name="dav">    0.06    0.07</time>
   <time name="total">    0.07    0.07</time>
   <energy>
    <i name="e_fr_energy">     -4.38088333 </i>
    <i name="e_wo_entrp">     -4.37926995 </i>
    <i name="e_0_energy">     -4.38007664 </i>
   </energy>
  </scstep>
  <scstep>
   <time name="dav">    0.07    0.08</time>
   <time name="total">    0.08    0.08</time>
   <energy>
    <i name="e_fr_energy">     -4.38088550 </i>
    <i name="e_wo_entrp">     -4.37927216 </i>
    <i name="e_0_energy">     -4.38007883 </i>
   </energy>
  </scstep>
  <scstep>
   <time name="dav">    0.06    0.06</time>
   <time name="total">    0.06    0.07</time>
   <energy>
    <i name="e_fr_energy">     -4.38088550 </i>
    <i name="e_wo_entrp">     -4.37927216 </i>
    <i name="e_0_energy">     -4.38007883 </i>
   </energy>
  </scstep>
  <scstep>
   <time name="dav">    0.06    0.06</time>
   <time name="total">    0.07    0.07</time>
   <energy>
    <i name="e_fr_energy">     -4.35340116 </i>
    <i name="e_wo_entrp">     -4.35143805 </i>
    <i name="e_0_energy">     -4.35241961 </i>
   </energy>
  </scstep>
  <scstep>
   <time name="dav">    0.05    0.06</time>
   <time name="total">    0.07    0.07</time>
   <energy>
    <i name="e_fr_energy">     -4.33662658 </i>
    <i name="e_wo_entrp">     -4.33406990 </i>
    <i name="e_0_energy">     -4.33534824 </i>
   </energy>
  </scstep>
  <scstep>
   <time name="dav">    0.05    0.05</time>
   <time name="total">    0.06    0.07</time>
   <energy>
    <i name="alphaZ">      3.22132010 </i>
    <i name="ewald">   -152.18751399 </i>
    <i name="hartreedc">     -0.26953421 </i>
    <i name="XCdc">     -7.68956939 </i>
    <i name="pawpsdc">     37.28463267 </i>
    <i name="pawaedc">    -19.78538362 </i>
    <i name="eentropy">     -0.00253737 </i>
    <i name="bandstr">     32.03119420 </i>
    <i name="atom">    103.06077658 </i>
    <i name="e_fr_energy">     -4.33661504 </i>
    <i name="e_wo_entrp">     -4.33407767 </i>
    <i name="e_0_energy">     -4.33534635 </i>
   </energy>
  </scstep>
  <structure>
   <crystal>
    <varray name="basis" >
     <v>       1.73525505       1.73525505       0.00000000 </v>
     <v>       0.00000000       1.73525505       1.73525505 </v>
     <v>       1.73525505       0.00000000       1.73525505 </v>
    </varray>
    <i name="volume">     10.45008797 </i>
    <varray name="rec_basis" >
     <v>       0.28814208       0.28814208      -0.28814208 </v>
     <v>      -0.28814208       0.28814208       0.28814208 </v>
     <v>       0.28814208      -0.28814208       0.28814208 </v>
    </varray>
   </crystal>
   <varray name="positions" >
    <v>       0.00000000       0.00000000       0.00000000 </v>
   </varray>
  </structure>
  <varray name="forces" >
   <v>      -0.00000000       0.00000000      -0.00000000 </v>
  </varray>
  <varray name="stress" >
   <v>     522.73825956      -0.00000000      -0.00000000 </v>
   <v>      -0.00000000     522.73825956       0.00000000 </v>
   <v>      -0.00000000       0.00000000     522.73825956 </v>
  </varray>
  <energy>
   <i name="e_fr_energy">     -4.33661504 </i>
   <i name="e_wo_entrp">     -4.33534635 </i>
   <i name="e_0_energy">     -0.00253737 </i>
  </energy>
  <time name="totalsc">    0.63    1.18</time>
  <eigenvalues>
   <array>
    <dimension dim="1">band</dimension>
    <dimension dim="2">kpoint</dimension>
    <dimension dim="3">spin</dimension>
    <field>eigene</field>
    <field>occ</field>
    <set>
     <set comment="spin 1">
      <set comment="kpoint 1">
       <r>   -2.7569    1.0000 </r>
       <r>   28.5265    0.0000 </r>
       <r>   28.5266    0.0000 </r>
       <r>   28.5266    0.0000 </r>
       <r>   30.7415    0.0000 </r>
       <r>   30.7416    0.0000 </r>
      </set>
      <set comment="kpoint 2">
       <r>   -2.4580    1.0000 </r>
       <r>   24.8071    0.0000 </r>
       <r>   27.7546    0.0000 </r>
       <r>   27.7547    0.0000 </r>
       <r>   31.8016    0.0000 </r>
       <r>   31.9675    0.0000 </r>
      </set>
      <set comment="kpoint 3">
       <r>   -1.5649    1.0000 </r>
       <r>   20.0132    0.0000 </r>
       <r>   26.8412    0.0000 </r>
       <r>   26.8413    0.0000 </r>
       <r>   31.6811    0.0000 </r>
       <r>   32.9876    0.0000 </r>
      </set>
      <set comment="kpoint 4">
       <r>   -0.0875    1.0000 </r>
       <r>   15.4744    0.0000 </r>
       <r>   26.2964    0.0000 </r>
       <r>   26.2966    0.0000 </r>
       <r>   30.9186    0.0000 </r>
       <r>   30.9189    0.0000 </r>
      </set>
      <set comment="kpoint 5">
       <r>    1.9593    1.0000 </r>
       <r>   11.3513    1.0000 </r>
       <r>   26.2471    0.0000 </r>
       <r>   26.2473    0.0000 </r>
       <r>   29.0503    0.0000 </r>
       <r>   29.0506    0.0000 </r>
      </set>
      <set comment="kpoint 6">
       <r>    4.5455    1.0000 </r>
       <r>    7.7282    1.0000 </r>
       <r>   26.6869    0.0000 </r>
       <r>   26.6871    0.0000 </r>
       <r>   27.6225    0.0000 </r>
       <r>   27.6227    0.0000 </r>
      </set>
      <set comment="kpoint 7">
       <r>   -2.3582    1.0000 </r>
       <r>   26.1272    0.0000 </r>
       <r>   26.1272    0.0000 </r>
       <r>   26.5629    0.0000 </r>
       <r>   29.9946    0.0000 </r>
       <r>   33.7071    0.0000 </r>
      </set>
      <set comment="kpoint 8">
       <r>   -1.6639    1.0000 </r>
       <r>   21.7459    0.0000 </r>
       <r>   24.9078    0.0000 </r>
       <r>   26.7929    0.0000 </r>
       <r>   30.2733    0.0000 </r>
       <r>   31.1820    0.0000 </r>
      </set>
      <set comment="kpoint 9">
       <r>   -0.3820    1.0000 </r>
       <r>   17.1561    0.0000 </r>
       <r>   24.1803    0.0000 </r>
       <r>   26.4259    0.0000 </r>
       <r>   28.0526    0.0000 </r>
       <r>   33.1581    0.0000 </r>
      </set>
      <set comment="kpoint 10">
       <r>    1.4740    1.0000 </r>
       <r>   12.9141    1.0000 </r>
       <r>   23.9485    0.0000 </r>
       <r>   25.8671    0.0000 </r>
       <r>   26.3559    0.0000 </r>
       <r>   32.3502    0.0000 </r>
      </set>
      <set comment="kpoint 11">
       <r>    3.8819    1.0000 </r>
       <r>    9.1227    1.0000 </r>
       <r>   24.2182    0.0000 </r>
       <r>   24.2516    0.0000 </r>
       <r>   26.6362    0.0000 </r>
       <r>   30.7999    0.0000 </r>
      </set>
      <set comment="kpoint 12">
       <r>    5.7381    1.0000 </r>
       <r>    6.9175    1.0000 </r>
       <r>   23.1240    0.0000 </r>
       <r>   24.9928    0.0000 </r>
       <r>   27.4654    0.0000 </r>
       <r>   29.7164    0.0000 </r>
      </set>
      <set comment="kpoint 13">
       <r>    3.0203    1.0000 </r>
       <r>   10.3257    1.0000 </r>
       <r>   22.5087    0.0000 </r>
       <r>   26.2626    0.0000 </r>
       <r>   28.7913    0.0000 </r>
       <r>   29.1150    0.0000 </r>
      </set>
      <set comment="kpoint 14">
       <r>    0.7925    1.0000 </r>
       <r>   14.2629    1.0000 </r>
       <r>   22.4216    0.0000 </r>
       <r>   27.9811    0.0000 </r>
       <r>   28.9963    0.0000 </r>
       <r>   30.5936    0.0000 </r>
      </set>
      <set comment="kpoint 15">
       <r>   -0.8738    1.0000 </r>
       <r>   18.6055    0.0000 </r>
       <r>   22.8835    0.0000 </r>
       <r>   29.1867    0.0000 </r>
       <r>   30.2473    0.0000 </r>
       <r>   32.7501    0.0000 </r>
      </set>
      <set comment="kpoint 16">
       <r>   -1.9612    1.0000 </r>
       <r>   22.8268    0.0000 </r>
       <r>   24.2538    0.0000 </r>
       <r>   29.3588    0.0000 </r>
       <r>   31.1040    0.0000 </r>
       <r>   32.7060    0.0000 </r>
      </set>
      <set comment="kpoint 17">
       <r>   -1.1697    1.0000 </r>
       <r>   23.4833    0.0000 </r>
       <r>   23.4834    0.0000 </r>
       <r>   23.6834    0.0000 </r>
       <r>   27.5098    0.0000 </r>
       <r>   28.3981    0.0000 </r>
      </set>
      <set comment="kpoint 18">
       <r>   -0.0875    1.0000 </r>
       <r>   19.2372    0.0000 </r>
       <r>   22.5697    0.0000 </r>
       <r>   24.3755    0.0000 </r>
       <r>   24.8093    0.0000 </r>
       <r>   28.9966    0.0000 </r>
      </set>
      <set comment="kpoint 19">
       <r>    1.5702    1.0000 </r>
       <r>   14.9591    0.9676 </r>
       <r>   22.1649    0.0000 </r>
       <r>   22.2589    0.0000 </r>
       <r>   24.6260    0.0000 </r>
       <r>   31.6725    0.0000 </r>
      </set>
      <set comment="kpoint 20">
       <r>    3.7845    1.0000 </r>
       <r>   11.0514    1.0000 </r>
       <r>   20.4059    0.0000 </r>
       <r>   22.2587    0.0000 </r>
       <r>   24.8666    0.0000 </r>
       <r>   34.4189    0.0000 </r>
      </set>
      <set comment="kpoint 21">
       <r>    6.4789    1.0000 </r>
       <r>    7.6684    1.0000 </r>
       <r>   19.0755    0.0000 </r>
       <r>   22.8575    0.0000 </r>
       <r>   25.5744    0.0000 </r>
       <r>   33.2031    0.0000 </r>
      </set>
      <set comment="kpoint 22">
       <r>    4.6443    1.0000 </r>
       <r>    9.8281    1.0000 </r>
       <r>   18.3016    0.0000 </r>
       <r>   23.9626    0.0000 </r>
       <r>   26.7992    0.0000 </r>
       <r>   32.4437    0.0000 </r>
      </set>
      <set comment="kpoint 23">
       <r>    2.2491    1.0000 </r>
       <r>   13.4986    1.0000 </r>
       <r>   18.1499    0.0000 </r>
       <r>   25.5738    0.0000 </r>
       <r>   28.5136    0.0000 </r>
       <r>   32.1366    0.0000 </r>
      </set>
      <set comment="kpoint 24">
       <r>    0.4019    1.0000 </r>
       <r>   16.9891    0.0000 </r>
       <r>   19.1602    0.0000 </r>
       <r>   27.6546    0.0000 </r>
       <r>   30.6134    0.0000 </r>
       <r>   31.6764    0.0000 </r>
      </set>
      <set comment="kpoint 25">
       <r>    0.7919    1.0000 </r>
       <r>   21.3657    0.0000 </r>
       <r>   21.4791    0.0000 </r>
       <r>   21.4791    0.0000 </r>
       <r>   21.5627    0.0000 </r>
       <r>   26.7214    0.0000 </r>
      </set>
      <set comment="kpoint 26">
       <r>    2.2459    1.0000 </r>
       <r>   17.3997    0.0000 </r>
       <r>   18.9883    0.0000 </r>
       <r>   20.8963    0.0000 </r>
       <r>   22.7470    0.0000 </r>
       <r>   27.5226    0.0000 </r>
      </set>
      <set comment="kpoint 27">
       <r>    4.2553    1.0000 </r>
       <r>   13.4661    1.0000 </r>
       <r>   16.9247    0.0000 </r>
       <r>   20.8148    0.0000 </r>
       <r>   23.1929    0.0000 </r>
       <r>   30.4973    0.0000 </r>
      </set>
      <set comment="kpoint 28">
       <r>    6.7775    1.0000 </r>
       <r>    9.9313    1.0000 </r>
       <r>   15.4083    0.0000 </r>
       <r>   21.2449    0.0000 </r>
       <r>   23.8225    0.0000 </r>
       <r>   34.2655    0.0000 </r>
      </set>
      <set comment="kpoint 29">
       <r>    6.8069    1.0000 </r>
       <r>    9.8068    1.0000 </r>
       <r>   14.5226    1.0000 </r>
       <r>   22.1818    0.0000 </r>
       <r>   24.9181    0.0000 </r>
       <r>   36.2516    0.0000 </r>
      </set>
      <set comment="kpoint 30">
       <r>    4.2646    1.0000 </r>
       <r>   12.5670    1.0000 </r>
       <r>   14.9049    0.9955 </r>
       <r>   23.6230    0.0000 </r>
       <r>   26.5049    0.0000 </r>
       <r>   35.4852    0.0000 </r>
      </set>
      <set comment="kpoint 31">
       <r>    3.4905    1.0000 </r>
       <r>   16.1389    0.0000 </r>
       <r>   19.7777    0.0000 </r>
       <r>   20.1392    0.0000 </r>
       <r>   20.1393    0.0000 </r>
       <r>   25.4471    0.0000 </r>
      </set>
      <set comment="kpoint 32">
       <r>    5.2793    1.0000 </r>
       <r>   13.8457    1.0000 </r>
       <r>   16.3621    0.0000 </r>
       <r>   19.8914    0.0000 </r>
       <r>   21.6139    0.0000 </r>
       <r>   26.5484    0.0000 </r>
      </set>
      <set comment="kpoint 33">
       <r>    7.5338    1.0000 </r>
       <r>   12.0081    1.0000 </r>
       <r>   12.9865    1.0000 </r>
       <r>   20.1457    0.0000 </r>
       <r>   22.4449    0.0000 </r>
       <r>   29.8652    0.0000 </r>
      </set>
      <set comment="kpoint 34">
       <r>    9.4492    1.0000 </r>
       <r>    9.6355    1.0000 </r>
       <r>   11.9797    1.0000 </r>
       <r>   20.9120    0.0000 </r>
       <r>   23.4645    0.0000 </r>
       <r>   33.9968    0.0000 </r>
      </set>
      <set comment="kpoint 35">
       <r>    6.7915    1.0000 </r>
       <r>   11.4508    1.0000 </r>
       <r>   18.9824    0.0000 </r>
       <r>   19.4730    0.0000 </r>
       <r>   19.4731    0.0000 </r>
       <r>   24.7505    0.0000 </r>
      </set>
      <set comment="kpoint 36">
       <r>    8.1703    1.0000 </r>
       <r>   10.2687    1.0000 </r>
       <r>   15.9839    0.0000 </r>
       <r>   19.5582    0.0000 </r>
       <r>   21.2378    0.0000 </r>
       <r>   26.2036    0.0000 </r>
      </set>
      <set comment="kpoint 37">
       <r>   -0.7754    1.0000 </r>
       <r>   19.9285    0.0000 </r>
       <r>   21.7156    0.0000 </r>
       <r>   27.7772    0.0000 </r>
       <r>   27.8562    0.0000 </r>
       <r>   30.5485    0.0000 </r>
      </set>
      <set comment="kpoint 38">
       <r>    0.6951    1.0000 </r>
       <r>   16.0612    0.0000 </r>
       <r>   20.5300    0.0000 </r>
       <r>   25.3172    0.0000 </r>
       <r>   28.2582    0.0000 </r>
       <r>   32.3906    0.0000 </r>
      </set>
      <set comment="kpoint 39">
       <r>    2.7310    1.0000 </r>
       <r>   12.0537    1.0000 </r>
       <r>   20.3679    0.0000 </r>
       <r>   23.3267    0.0000 </r>
       <r>   28.3972    0.0000 </r>
       <r>   31.3856    0.0000 </r>
      </set>
      <set comment="kpoint 40">
       <r>    5.3014    1.0000 </r>
       <r>    8.4666    1.0000 </r>
       <r>   20.7372    0.0000 </r>
       <r>   21.8842    0.0000 </r>
       <r>   28.8769    0.0000 </r>
       <r>   29.9739    0.0000 </r>
      </set>
      <set comment="kpoint 41">
       <r>    1.1815    1.0000 </r>
       <r>   17.7369    0.0000 </r>
       <r>   19.6301    0.0000 </r>
       <r>   22.0132    0.0000 </r>
       <r>   25.8408    0.0000 </r>
       <r>   28.9768    0.0000 </r>
      </set>
      <set comment="kpoint 42">
       <r>    3.0172    1.0000 </r>
       <r>   14.2208    1.0000 </r>
       <r>   18.6489    0.0000 </r>
       <r>   19.8914    0.0000 </r>
       <r>   26.6691    0.0000 </r>
       <r>   31.2409    0.0000 </r>
      </set>
      <set comment="kpoint 43">
       <r>    5.3942    1.0000 </r>
       <r>   10.5619    1.0000 </r>
       <r>   17.8810    0.0000 </r>
       <r>   19.1552    0.0000 </r>
       <r>   27.1957    0.0000 </r>
       <r>   33.5024    0.0000 </r>
      </set>
      <set comment="kpoint 44">
       <r>    7.2268    1.0000 </r>
       <r>    8.3828    1.0000 </r>
       <r>   16.8259    0.0000 </r>
       <r>   19.8406    0.0000 </r>
       <r>   28.0658    0.0000 </r>
       <r>   32.5379    0.0000 </r>
      </set>
      <set comment="kpoint 45">
       <r>    4.5485    1.0000 </r>
       <r>   11.6513    1.0000 </r>
       <r>   16.3307    0.0000 </r>
       <r>   21.1483    0.0000 </r>
       <r>   29.3918    0.0000 </r>
       <r>   31.8217    0.0000 </r>
      </set>
      <set comment="kpoint 46">
       <r>    2.3451    1.0000 </r>
       <r>   14.7777    1.0000 </r>
       <r>   17.0435    0.0000 </r>
       <r>   22.9877    0.0000 </r>
       <r>   30.8176    0.0000 </r>
       <r>   31.0657    0.0000 </r>
      </set>
      <set comment="kpoint 47">
       <r>    3.8734    1.0000 </r>
       <r>   16.2576    0.0000 </r>
       <r>   16.4195    0.0000 </r>
       <r>   18.4422    0.0000 </r>
       <r>   24.3885    0.0000 </r>
       <r>   27.7703    0.0000 </r>
      </set>
      <set comment="kpoint 48">
       <r>    6.0338    1.0000 </r>
       <r>   13.0573    1.0000 </r>
       <r>   14.6495    1.0000 </r>
       <r>   17.8318    0.0000 </r>
       <r>   25.6075    0.0000 </r>
       <r>   30.3675    0.0000 </r>
      </set>
      <set comment="kpoint 49">
       <r>    8.6117    1.0000 </r>
       <r>    9.8187    1.0000 </r>
       <r>   13.4068    1.0000 </r>
       <r>   18.3413    0.0000 </r>
       <r>   26.5199    0.0000 </r>
       <r>   34.1589    0.0000 </r>
      </set>
      <set comment="kpoint 50">
       <r>    6.9003    1.0000 </r>
       <r>   11.0999    1.0000 </r>
       <r>   13.4111    1.0000 </r>
       <r>   19.4753    0.0000 </r>
       <r>   27.7564    0.0000 </r>
       <r>   35.1802    0.0000 </r>
      </set>
      <set comment="kpoint 51">
       <r>    7.1638    1.0000 </r>
       <r>   11.8098    1.0000 </r>
       <r>   15.5271    0.0000 </r>
       <r>   17.6759    0.0000 </r>
       <r>   23.6679    0.0000 </r>
       <r>   27.1217    0.0000 </r>
      </set>
      <set comment="kpoint 52">
       <r>    8.8995    1.0000 </r>
       <r>   10.9561    1.0000 </r>
       <r>   12.8566    1.0000 </r>
       <r>   17.4521    0.0000 </r>
       <r>   25.2621    0.0000 </r>
       <r>   30.0664    0.0000 </r>
      </set>
      <set comment="kpoint 53">
       <r>    5.0167    1.0000 </r>
       <r>   13.3020    1.0000 </r>
       <r>   15.4831    0.0000 </r>
       <r>   17.8340    0.0000 </r>
       <r>   29.5015    0.0000 </r>
       <r>   31.7610    0.0000 </r>
      </set>
      <set comment="kpoint 54">
       <r>    7.5266    1.0000 </r>
       <r>   10.5367    1.0000 </r>
       <r>   15.0113    0.8660 </r>
       <r>   16.4527    0.0000 </r>
       <r>   30.8282    0.0000 </r>
       <r>   32.0306    0.0000 </r>
      </set>
      <set comment="kpoint 55">
       <r>    8.2753    1.0000 </r>
       <r>   12.5741    1.0000 </r>
       <r>   12.7922    1.0000 </r>
       <r>   15.1840    0.0911 </r>
       <r>   28.8244    0.0000 </r>
       <r>   31.3523    0.0000 </r>
      </set>
      <set comment="kpoint 56">
       <r>   10.0884    1.0000 </r>
       <r>   10.3668    1.0000 </r>
       <r>   12.5280    1.0000 </r>
       <r>   15.1366    0.2533 </r>
       <r>   30.5557    0.0000 </r>
       <r>   34.3028    0.0000 </r>
      </set>
     </set>
    </set>
   </array>
  </eigenvalues>
  <separator name="orbital magnetization" >
   <v name="MAGDIPOLOUT">      0.00000000      0.00000000      0.00000000</v>
  </separator>
  <dos>
   <i name="efermi">     15.08964448 </i>
   <total>
    <array>
     <dimension dim="1">gridpoints</dimension>
     <dimension dim="2">spin</dimension>
     <field>energy</field>
     <field>total</field>
     <field>integrated</field>
     <set>
      <set comment="spin 1">
       <r>    -4.7074     0.0000     0.0000 </r>
       <r>    -4.5643     0.0000     0.0000 </r>
       <r>    -4.4213     0.0000     0.0000 </r>
       <r>    -4.2783     0.0000     0.0000 </r>
       <r>    -4.1352     0.0000     0.0000 </r>
       <r>    -3.9922     0.0000     0.0000 </r>
       <r>    -3.8492     0.0000     0.0000 </r>
       <r>    -3.7061     0.0000     0.0000 </r>
       <r>    -3.5631     0.0000     0.0000 </r>
       <r>    -3.4201     0.0000     0.0000 </r>
       <r>    -3.2770     0.0000     0.0000 </r>
       <r>    -3.1340     0.0000     0.0000 </r>
       <r>    -2.9910     0.0000     0.0000 </r>
       <r>    -2.8480     0.0010     0.0001 </r>
       <r>    -2.7049     0.0071     0.0012 </r>
       <r>    -2.5619     0.0085     0.0024 </r>
       <r>    -2.4189     0.0660     0.0118 </r>
       <r>    -2.2758     0.0670     0.0214 </r>
       <r>    -2.1328     0.0090     0.0227 </r>
       <r>    -1.9898     0.0423     0.0287 </r>
       <r>    -1.8467     0.0774     0.0398 </r>
       <r>    -1.7037     0.0798     0.0512 </r>
       <r>    -1.5607     0.2036     0.0803 </r>
       <r>    -1.4176     0.0566     0.0884 </r>
       <r>    -1.2746     0.0060     0.0893 </r>
       <r>    -1.1316     0.0401     0.0950 </r>
       <r>    -0.9885     0.0318     0.0996 </r>
       <r>    -0.8455     0.1926     0.1271 </r>
       <r>    -0.7025     0.2584     0.1641 </r>
       <r>    -0.5594     0.0413     0.1700 </r>
       <r>    -0.4164     0.0777     0.1811 </r>
       <r>    -0.2734     0.1589     0.2038 </r>
       <r>    -0.1304     0.1057     0.2189 </r>
       <r>     0.0127     0.2184     0.2502 </r>
       <r>     0.1557     0.0263     0.2539 </r>
       <r>     0.2987     0.0092     0.2552 </r>
       <r>     0.4418     0.0809     0.2668 </r>
       <r>     0.5848     0.0659     0.2763 </r>
       <r>     0.7278     0.3692     0.3291 </r>
       <r>     0.8709     0.3750     0.3827 </r>
       <r>     1.0139     0.0473     0.3895 </r>
       <r>     1.1569     0.0898     0.4023 </r>
       <r>     1.3000     0.1503     0.4238 </r>
       <r>     1.4430     0.1025     0.4385 </r>
       <r>     1.5860     0.2938     0.4805 </r>
       <r>     1.7291     0.1149     0.4969 </r>
       <r>     1.8721     0.0122     0.4987 </r>
       <r>     2.0151     0.0571     0.5068 </r>
       <r>     2.1582     0.0707     0.5170 </r>
       <r>     2.3012     0.4059     0.5750 </r>
       <r>     2.4442     0.2759     0.6145 </r>
       <r>     2.5872     0.0322     0.6191 </r>
       <r>     2.7303     0.2396     0.6534 </r>
       <r>     2.8733     0.2583     0.6903 </r>
       <r>     3.0163     0.3660     0.7427 </r>
       <r>     3.1594     0.3688     0.7954 </r>
       <r>     3.3024     0.0176     0.7979 </r>
       <r>     3.4454     0.0163     0.8003 </r>
       <r>     3.5885     0.0420     0.8063 </r>
       <r>     3.7315     0.0715     0.8165 </r>
       <r>     3.8745     0.4028     0.8741 </r>
       <r>     4.0176     0.2744     0.9134 </r>
       <r>     4.1606     0.0438     0.9196 </r>
       <r>     4.3036     0.2478     0.9551 </r>
       <r>     4.4467     0.1426     0.9755 </r>
       <r>     4.5897     0.4365     1.0379 </r>
       <r>     4.7327     0.3309     1.0852 </r>
       <r>     4.8757     0.0349     1.0902 </r>
       <r>     5.0188     0.1233     1.1079 </r>
       <r>     5.1618     0.1427     1.1283 </r>
       <r>     5.3048     0.4561     1.1935 </r>
       <r>     5.4479     0.6603     1.2880 </r>
       <r>     5.5909     0.1280     1.3063 </r>
       <r>     5.7339     0.1168     1.3230 </r>
       <r>     5.8770     0.1324     1.3419 </r>
       <r>     6.0200     0.2128     1.3723 </r>
       <r>     6.1630     0.2740     1.4115 </r>
       <r>     6.3061     0.0188     1.4142 </r>
       <r>     6.4491     0.0831     1.4261 </r>
       <r>     6.5921     0.1550     1.4483 </r>
       <r>     6.7352     0.1376     1.4680 </r>
       <r>     6.8782     0.5439     1.5458 </r>
       <r>     7.0212     0.3793     1.6000 </r>
       <r>     7.1643     0.2444     1.6350 </r>
       <r>     7.3073     0.4659     1.7016 </r>
       <r>     7.4503     0.1697     1.7259 </r>
       <r>     7.5933     0.5571     1.8056 </r>
       <r>     7.7364     0.3529     1.8561 </r>
       <r>     7.8794     0.0802     1.8675 </r>
       <r>     8.0224     0.0041     1.8681 </r>
       <r>     8.1655     0.0730     1.8785 </r>
       <r>     8.3085     0.2995     1.9214 </r>
       <r>     8.4515     0.6379     2.0126 </r>
       <r>     8.5946     0.5593     2.0926 </r>
       <r>     8.7376     0.3027     2.1359 </r>
       <r>     8.8806     0.1158     2.1525 </r>
       <r>     9.0237     0.1629     2.1758 </r>
       <r>     9.1667     0.1745     2.2007 </r>
       <r>     9.3097     0.0693     2.2107 </r>
       <r>     9.4528     0.0642     2.2198 </r>
       <r>     9.5958     0.0945     2.2334 </r>
       <r>     9.7388     0.2168     2.2644 </r>
       <r>     9.8818     0.7581     2.3728 </r>
       <r>    10.0249     0.3985     2.4298 </r>
       <r>    10.1679     0.2114     2.4600 </r>
       <r>    10.3109     0.2704     2.4987 </r>
       <r>    10.4540     0.4357     2.5610 </r>
       <r>    10.5970     0.6967     2.6607 </r>
       <r>    10.7400     0.2518     2.6967 </r>
       <r>    10.8831     0.0442     2.7030 </r>
       <r>    11.0261     0.2992     2.7458 </r>
       <r>    11.1691     0.3633     2.7978 </r>
       <r>    11.3122     0.0789     2.8091 </r>
       <r>    11.4552     0.0870     2.8215 </r>
       <r>    11.5982     0.1479     2.8427 </r>
       <r>    11.7413     0.3816     2.8973 </r>
       <r>    11.8843     0.2497     2.9330 </r>
       <r>    12.0273     0.4376     2.9956 </r>
       <r>    12.1704     0.4283     3.0568 </r>
       <r>    12.3134     0.0285     3.0609 </r>
       <r>    12.4564     0.0585     3.0693 </r>
       <r>    12.5994     0.4015     3.1267 </r>
       <r>    12.7425     0.2428     3.1614 </r>
       <r>    12.8855     0.4314     3.2231 </r>
       <r>    13.0285     0.5918     3.3078 </r>
       <r>    13.1716     0.3974     3.3646 </r>
       <r>    13.3146     0.2388     3.3988 </r>
       <r>    13.4576     0.7874     3.5114 </r>
       <r>    13.6007     0.4777     3.5797 </r>
       <r>    13.7437     0.0470     3.5864 </r>
       <r>    13.8867     0.1626     3.6097 </r>
       <r>    14.0298     0.0716     3.6199 </r>
       <r>    14.1728     0.1501     3.6414 </r>
       <r>    14.3158     0.5036     3.7134 </r>
       <r>    14.4589     0.1492     3.7348 </r>
       <r>    14.6019     0.2997     3.7776 </r>
       <r>    14.7449     0.4476     3.8416 </r>
       <r>    14.8880     0.3102     3.8860 </r>
       <r>    15.0310     0.5666     3.9671 </r>
       <r>    15.1740     0.5030     4.0390 </r>
       <r>    15.3170     0.2408     4.0735 </r>
       <r>    15.4601     0.3463     4.1230 </r>
       <r>    15.6031     0.4238     4.1836 </r>
       <r>    15.7461     0.0503     4.1908 </r>
       <r>    15.8892     0.0154     4.1930 </r>
       <r>    16.0322     0.2561     4.2296 </r>
       <r>    16.1752     0.4146     4.2889 </r>
       <r>    16.3183     0.5280     4.3644 </r>
       <r>    16.4613     0.9098     4.4946 </r>
       <r>    16.6043     0.3258     4.5412 </r>
       <r>    16.7474     0.0777     4.5523 </r>
       <r>    16.8904     0.4375     4.6149 </r>
       <r>    17.0334     0.4483     4.6790 </r>
       <r>    17.1765     0.3266     4.7257 </r>
       <r>    17.3195     0.1428     4.7461 </r>
       <r>    17.4625     0.3088     4.7903 </r>
       <r>    17.6055     0.2026     4.8193 </r>
       <r>    17.7486     0.4161     4.8788 </r>
       <r>    17.8916     0.9258     5.0112 </r>
       <r>    18.0346     0.3824     5.0659 </r>
       <r>    18.1777     0.1759     5.0911 </r>
       <r>    18.3207     0.4283     5.1523 </r>
       <r>    18.4637     0.5408     5.2297 </r>
       <r>    18.6068     0.3761     5.2835 </r>
       <r>    18.7498     0.4483     5.3476 </r>
       <r>    18.8928     0.0737     5.3582 </r>
       <r>    19.0359     0.3089     5.4023 </r>
       <r>    19.1789     0.6552     5.4961 </r>
       <r>    19.3219     0.4263     5.5570 </r>
       <r>    19.4650     0.2121     5.5874 </r>
       <r>    19.6080     0.3758     5.6411 </r>
       <r>    19.7510     0.2797     5.6811 </r>
       <r>    19.8941     0.8412     5.8015 </r>
       <r>    20.0371     0.6989     5.9014 </r>
       <r>    20.1801     0.3029     5.9447 </r>
       <r>    20.3231     0.2753     5.9841 </r>
       <r>    20.4662     0.5956     6.0693 </r>
       <r>    20.6092     0.4542     6.1343 </r>
       <r>    20.7522     0.3970     6.1911 </r>
       <r>    20.8953     0.5454     6.2691 </r>
       <r>    21.0383     0.2614     6.3065 </r>
       <r>    21.1813     0.3960     6.3631 </r>
       <r>    21.3244     0.4355     6.4254 </r>
       <r>    21.4674     0.1538     6.4474 </r>
       <r>    21.6104     0.2545     6.4838 </r>
       <r>    21.7535     0.4508     6.5483 </r>
       <r>    21.8965     0.4738     6.6160 </r>
       <r>    22.0395     0.3818     6.6706 </r>
       <r>    22.1826     0.4278     6.7318 </r>
       <r>    22.3256     0.6012     6.8178 </r>
       <r>    22.4686     0.4983     6.8891 </r>
       <r>    22.6116     0.4866     6.9587 </r>
       <r>    22.7547     0.2664     6.9968 </r>
       <r>    22.8977     0.5240     7.0717 </r>
       <r>    23.0407     0.4005     7.1290 </r>
       <r>    23.1838     0.3530     7.1795 </r>
       <r>    23.3268     0.4285     7.2408 </r>
       <r>    23.4698     0.3669     7.2933 </r>
       <r>    23.6129     0.2548     7.3297 </r>
       <r>    23.7559     0.3310     7.3771 </r>
       <r>    23.8989     0.3195     7.4228 </r>
       <r>    24.0420     0.3842     7.4777 </r>
       <r>    24.1850     0.3270     7.5245 </r>
       <r>    24.3280     0.6428     7.6164 </r>
       <r>    24.4711     0.4154     7.6758 </r>
       <r>    24.6141     0.1614     7.6989 </r>
       <r>    24.7571     0.2670     7.7371 </r>
       <r>    24.9002     0.6508     7.8302 </r>
       <r>    25.0432     0.5523     7.9092 </r>
       <r>    25.1862     0.1291     7.9277 </r>
       <r>    25.3292     0.4473     7.9916 </r>
       <r>    25.4723     0.3428     8.0407 </r>
       <r>    25.6153     0.6155     8.1287 </r>
       <r>    25.7583     0.4071     8.1869 </r>
       <r>    25.9014     0.3401     8.2356 </r>
       <r>    26.0444     0.1438     8.2561 </r>
       <r>    26.1874     0.2198     8.2876 </r>
       <r>    26.3305     0.6008     8.3735 </r>
       <r>    26.4735     0.6499     8.4665 </r>
       <r>    26.6165     0.9445     8.6016 </r>
       <r>    26.7596     0.9154     8.7325 </r>
       <r>    26.9026     0.5381     8.8095 </r>
       <r>    27.0456     0.1099     8.8252 </r>
       <r>    27.1887     0.3974     8.8820 </r>
       <r>    27.3317     0.3100     8.9263 </r>
       <r>    27.4747     0.2308     8.9594 </r>
       <r>    27.6178     0.4467     9.0233 </r>
       <r>    27.7608     0.6368     9.1143 </r>
       <r>    27.9038     0.6864     9.2125 </r>
       <r>    28.0468     0.5672     9.2936 </r>
       <r>    28.1899     0.5424     9.3712 </r>
       <r>    28.3329     0.4770     9.4394 </r>
       <r>    28.4759     0.5428     9.5171 </r>
       <r>    28.6190     0.2590     9.5541 </r>
       <r>    28.7620     0.1782     9.5796 </r>
       <r>    28.9050     0.7210     9.6827 </r>
       <r>    29.0481     0.8543     9.8049 </r>
       <r>    29.1911     0.5433     9.8826 </r>
       <r>    29.3341     0.3065     9.9265 </r>
       <r>    29.4772     0.5116     9.9996 </r>
       <r>    29.6202     0.2331    10.0330 </r>
       <r>    29.7632     0.1978    10.0613 </r>
       <r>    29.9063     0.3199    10.1070 </r>
       <r>    30.0493     0.5596    10.1871 </r>
       <r>    30.1923     0.3166    10.2323 </r>
       <r>    30.3353     0.5165    10.3062 </r>
       <r>    30.4784     0.5730    10.3882 </r>
       <r>    30.6214     0.7400    10.4940 </r>
       <r>    30.7644     0.4718    10.5615 </r>
       <r>    30.9075     0.7601    10.6702 </r>
       <r>    31.0505     0.3361    10.7183 </r>
       <r>    31.1935     0.4936    10.7889 </r>
       <r>    31.3366     0.6830    10.8866 </r>
       <r>    31.4796     0.5233    10.9614 </r>
       <r>    31.6226     0.1680    10.9855 </r>
       <r>    31.7657     0.5685    11.0668 </r>
       <r>    31.9087     0.5935    11.1517 </r>
       <r>    32.0517     0.4411    11.2148 </r>
       <r>    32.1948     0.3743    11.2683 </r>
       <r>    32.3378     0.2928    11.3102 </r>
       <r>    32.4808     0.7390    11.4159 </r>
       <r>    32.6239     0.4996    11.4874 </r>
       <r>    32.7669     0.2843    11.5280 </r>
       <r>    32.9099     0.1354    11.5474 </r>
       <r>    33.0529     0.0824    11.5592 </r>
       <r>    33.1960     0.2867    11.6002 </r>
       <r>    33.3390     0.2081    11.6299 </r>
       <r>    33.4820     0.1981    11.6583 </r>
       <r>    33.6251     0.2960    11.7006 </r>
       <r>    33.7681     0.0639    11.7097 </r>
       <r>    33.9111     0.0264    11.7135 </r>
       <r>    34.0542     0.1209    11.7308 </r>
       <r>    34.1972     0.4059    11.7889 </r>
       <r>    34.3402     0.5126    11.8622 </r>
       <r>    34.4833     0.2858    11.9031 </r>
       <r>    34.6263     0.0469    11.9098 </r>
       <r>    34.7693     0.0004    11.9098 </r>
       <r>    34.9124     0.0000    11.9098 </r>
       <r>    35.0554     0.0097    11.9112 </r>
       <r>    35.1984     0.1419    11.9315 </r>
       <r>    35.3414     0.1003    11.9459 </r>
       <r>    35.4845     0.0627    11.9548 </r>
       <r>    35.6275     0.0608    11.9635 </r>
       <r>    35.7705     0.0028    11.9639 </r>
       <r>    35.9136     0.0000    11.9639 </r>
       <r>    36.0566     0.0007    11.9640 </r>
       <r>    36.1996     0.0575    11.9723 </r>
       <r>    36.3427     0.1689    11.9964 </r>
       <r>    36.4857     0.0248    12.0000 </r>
       <r>    36.6287     0.0001    12.0000 </r>
       <r>    36.7718     0.0000    12.0000 </r>
       <r>    36.9148     0.0000    12.0000 </r>
       <r>    37.0578     0.0000    12.0000 </r>
       <r>    37.2009     0.0000    12.0000 </r>
       <r>    37.3439     0.0000    12.0000 </r>
       <r>    37.4869     0.0000    12.0000 </r>
       <r>    37.6300     0.0000    12.0000 </r>
       <r>    37.7730     0.0000    12.0000 </r>
       <r>    37.9160     0.0000    12.0000 </r>
       <r>    38.0590     0.0000    12.0000 </r>
       <r>    38.2021     0.0000    12.0000 </r>
      </set>
     </set>
    </array>
   </total>
  </dos>
 </calculation>
 <structure name="finalpos" >
  <crystal>
   <varray name="basis" >
    <v>       1.73525505       1.73525505       0.00000000 </v>
    <v>       0.00000000       1.73525505       1.73525505 </v>
    <v>       1.73525505       0.00000000       1.73525505 </v>
   </varray>
   <i name="volume">     10.45008797 </i>
   <varray name="rec_basis" >
    <v>       0.28814208       0.28814208      -0.28814208 </v>
    <v>      -0.28814208       0.28814208       0.28814208 </v>
    <v>       0.28814208      -0.28814208       0.28814208 </v>
   </varray>
  </crystal>
  <varray name="positions" >
   <v>       0.00000000       0.00000000       0.00000000 </v>
  </varray>
 </structure>
</modeling>
