fcc Si                                  
           1
     1.735255    1.735255    0.000000
     0.000000    1.735255    1.735255
     1.735255    0.000000    1.735255
   Si
   1
Direct configuration=     1
   0.00000000  0.00000000  0.00000000
