 running on    1 total cores
 distrk:  each k-point on    1 cores,    1 groups
 distr:  one band on    1 cores,    1 groups
 using from now: INCAR     
 vasp.5.3.5 31Mar14 (build Feb  5 2015 19:39:53) complex                        
  
 POSCAR found :  1 types and       1 ions
 scaLAPACK will be used
 LDA part: xc-table for Pade appr. of Perdew
 POSCAR, INCAR and KPOINTS ok, starting setup
 WARNING: small aliasing (wrap around) errors must be expected
 FFT: planning ...
 WAVECAR not read
 entering main loop
       N       E                     dE             d eps       ncg     rms          rms(c)
DAV:   1    -0.338550021694E+01   -0.33855E+01   -0.13832E+03   792   0.298E+02
DAV:   2    -0.437701400677E+01   -0.99151E+00   -0.95635E+00   984   0.242E+01
DAV:   3    -0.438088332519E+01   -0.38693E-02   -0.38656E-02   828   0.130E+00
DAV:   4    -0.438088549585E+01   -0.21707E-05   -0.21725E-05   948   0.232E-02
DAV:   5    -0.438088549636E+01   -0.50440E-09   -0.18129E-09   732   0.186E-04    0.112E+00
DAV:   6    -0.435340116481E+01    0.27484E-01   -0.35823E-03   726   0.387E-01    0.677E-01
DAV:   7    -0.433662658335E+01    0.16775E-01   -0.90957E-03   720   0.623E-01    0.277E-02
DAV:   8    -0.433661503567E+01    0.11548E-04   -0.19202E-05   642   0.373E-02
   1 F= -.43366150E+01 E0= -.43353464E+01  d E =-.433662E+01
 curvature:   0.00 expect dE= 0.000E+00 dE for cont linesearch  0.000E+00
 trial: gam= 0.00000 g(F)=  0.229E-65 g(S)=  0.000E+00 ort = 0.000E+00 (trialstep = 0.100E+01)
 search vector abs. value=  0.100E-09
 reached required accuracy - stopping structural energy minimisation
 writing wavefunctions
